Compiler and run-time data
===========================================================================
RASPA 2.0.50
Compiled as a 64-bits application
Compiler: gcc 11.4.0
Compile Date = Nov  7 2025, Compile Time = 13:35:41

Fri Nov  7 15:18:14 2025
Simulation started on Friday, November 07.
The start time was 03:18 PM.

Hostname:    tmh
OS type:     Linux on x86_64
OS release:  6.6.87.2-microsoft-standard-WSL2
OS version:  #1 SMP PREEMPT_DYNAMIC Thu Jun  5 18:30:46 UTC 2025

Simulation
===========================================================================
Dimensions: 3
Random number seed: 1762508894
RASPA directory set to: /home/tmh/RASPA/simulations/
String appended to output-files: 
Number of cycles: 100000
Number of initializing cycles: 50000
Number of equilibration cycles: 0
Print every: 1000
Triclinic boundary condition applied
Timestep: 0.000500
	Degrees of freedom:                        0
	Translational Degrees of freedom:          0
	Rotational Degrees of freedom:             0
	Degrees of freedom Framework:              0


Mutual consistent basic set of units:
======================================
Unit of temperature: Kelvin
Unit of length:      1e-10 [m]
Unit of time:        1e-12 [s]
Unit of mass:        1.66054e-27 [kg]
Unit of charge:      1.60218e-19 [C/particle]

Derived units and their conversion factors:
===========================================
Unit of energy:              1.66054e-23 [J]
Unit of force:               1.66054e-13 [N]
Unit of pressure:            1.66054e+07 [Pa]
Unit of velocity:            100 [m/s]
Unit of acceleration:        1e-08 [m^2/s]
Unit of diffusion:           1e-08 [m^2/s]
Unit of dipole moment:       1.60218e-29 [C.m]
Unit of electric potential:  0.000103643 [V]
Unit of electric field:      1.03643e+06 [V]
Unit of polarizability:      1.54587e-35 [-]
Unit of Coulomb potential:   167101.0800066561  [K]
Unit of dielectric constant: 0.0000154587       [s^2 C^2/(kg m^3)]
Unit of wave vectors:        5.3088374589       [cm^1]
Boltzmann constant:          0.8314464919       [-]

Internal conversion factors:
===========================================
Energy to Kelvin:                                    1.2027242847
FH correction factor                                 2.0211930949
Heat capacity conversion factor:                    10.0000088723
From Debye to internal units:                        4.8032067991
Isothermal compressibility conversion factor:        0.0000000602

Energy conversion factors:
===========================================
From mdyne/A to kcal/mol/A^2:           143.933
From mdyne/A to kj/mol/A^2:             602.214
From mdyne/A to K/A^2:                  72429.7
From mdyne A/rad^2 to kcal/mol/deg^2:   0.0438444


Properties computed
===========================================================================
Movies: no
Radial Distribution Function: no
Number of molecules GCMC histogram: no
Histogram of the molecule positions: no
Free energy profiles: no
Pore Size Distribution Function: no
End-to-end distance: no
Histogram of the energy of the system: no
Compute thermodynamic factors: no
Framework spacing histograms: no
Residence times histograms: no
Distance histograms: no
Bend Angle histograms: no
Dihedral angle histograms: no
Angle between planes histograms: no
Molecule properties: no
Infra-red spectra: no
Mean-squared displacement using modified order-N algorithm: no
Velocity-autocorrelation function modified order-N algorithm: no
Rotational velocity-autocorrelation function modified order-N algorithm: no
Molecular orientation-autocorrelation function modified order-N algorithm: no
Bond orientation-autocorrelation function modified order-N algorithm: no
Mean-squared displacement (conventional algorithm): no
Velocity-autocorrelation function (conventional algorithm): no
3D density grid for adsorbates: no
Compute cation an/or adsorption sites: no
dcTST snapshots: no
Compute pressure and stress: no


VTK
===========================================================================
VTK fractional-range position framework atoms: [-0.001000,1.001000] [-0.001000,1.001000] [-0.001000,1.001000]
VTK fractional-range position framework bonds: [-0.151000,1.151000] [-0.151000,1.151000] [-0.151000,1.151000]
VTK fractional-range com-position adsorbate molecules: [-0.101000,1.101000] [-0.101000,1.101000] [-0.101000,1.101000]
VTK fractional-range com-position cation molecules: [-0.101000,1.101000] [-0.101000,1.101000] [-0.101000,1.101000]
	3D free energy grid made for the full simulation-cell


Thermo/Baro-stat NHC parameters
===========================================================================
External temperature: 298 [K]
Beta: 0.00403598 [energy unit]
External Pressure: 1 [Pa]


Thermostat chain-length: 3
Timescale parameter for thermostat: 0.150000 [ps]
Barostat chain-length:   3
Timescale parameter for barostat:   0.150000 [ps]

Number of Yoshida-Suzuki decomposition steps: 5
Number of respa steps: 5


Method and settings for electrostatics
===============================================================================
Dielectric constant of the medium : 1.000000
Charge from charge-equilibration: no
Ewald summation is used (exact solution of a periodic system)
Relative precision                : 1e-06
Alpha convergence parameter       : 0.265058
kvec (x,y,z)                      : 20 20 8


CFC-RXMC parameters
===========================================================================
Number of reactions: 0


Rattle parameters
===========================================================================
Distance constraint type: r^2-r^2_0
Bend angle constraint type: theta-theta_0
Dihedral angle constraint type: phi-phi_0
Inversion-bend angle constraint type: chi-chi_0
Out-of-plane distance constraint type: r-r_0


Spectra parameters
===========================================================================
Compute normal modes: no


Minimization parameters
===========================================================================
Generalized coordinates are: Cartesian center-of-mass, elements of the orientational matrix p1,p2,p3 and strain
Potential derivatives are evaluated: analytically
Translation of the system is removed from the generalized Hessian: no
Rotation of the system is removed from the generalized Hessian: no
Maximum step-length: 0.3
Convergence factor: 1
Maximum number of minimization steps: 10000
Use gradients in the line-minimizations: yes
RMS gradient tolerance: 1e-06
Maximum gradient tolerance: 1e-06

Distance constraints: 0
Angle constraints: 0
Dihedral constraints: 0

Improper dihedral constraints: 0

Inversion-bend constraints: 0

Out-of-plane constraints: 0

Harmonic distance constraints: 0
Harmonic angle constraints: 0
Harmonic dihedral constraints: 0

Dihedral mid-point measurements: 0

All framework atoms are fixed

Fixed adsorbate atoms:  
Fixed adsorbate groups (center-of-mass):  
Fixed adsorbate groups (orientation):  

Fixed cation atoms:  
Fixed cation groups (center-of-mass):  
Fixed cation groups (orientation):  


dcTST parameters
===========================================================================
Free energy profiles computed: no
Free energy profiles written every 5000 cycles
Free energy mapping: mapped to a,b,c-coordinates
BarrierPosition:       0.0000000000       0.0000000000       0.0000000000
BarrierNormal:         0.0000000000       0.0000000000       0.0000000000
Start with a molecule on top of the barrier: no
Maximum distance to barrier (e.g. distance to minumum free energy):       0.0000000000 [A]
Maximum trajectory time:      10.0000000000 [ps]
Each configuration is used with 5 different initial velocities


Cbmc parameters
===========================================================================
Biasing method: using only the VDW part
Number of trial positions:                                       10
Number of trial positions (reinsertion):                         10
Number of trial positions (partial reinsertion):                 10
Number of trial positions (identity-change):                     10
Number of trial positions (Gibbs particle transfer):             10
Number of trial positions (insertion/deletion):                  10
Number of trial positions (Widom insertion):                     10
Number of trial positions coupled Torsion-selection:             100
Number of trial positions first bead:                            10
Number of trial positions first bead (reinsertion):              10
Number of trial positions first bead (partial reinsertion):      10
Number of trial positions first bead (identity-change):          10
Number of trial positions first bead (Gibbs particle transfer):  10
Number of trial positions first bead (insertion/deletion):       10
Number of trial positions first bead (Widom insertion):          10
Number of trial moves per open bead:                             150
Target acceptance ratio small-mc scheme:                         0.400000
Energy overlap criteria:                                         1e+07
Minimal Rosenbluth factor:                                       1e-150


Pseudo atoms: 138
===========================================================================
Pseudo Atom[   0] Name UNIT     Oxidation:          Element: H    pdb-name: H    Scat. Types:   1   1 Mass=1.000000000  B-factor:0.000   
                 Charge=1.000000000          Polarization=0.000000000  [A^3] (considered a charged atom and no polarization)  Interactions: yes
                 Anisotropic factor:    0.000 [-] (Absolute), Radius:    1.000 [A], Framework-atom:  no
Pseudo Atom[   1] Name C        Oxidation: +0       Element: C    pdb-name: C    Scat. Types:   7   6 Mass=12.010700000 B-factor:1.000   
                 Charge=0.000000000          Polarization=0.000000000  [A^3] (considered a chargeless atom and no polarization)  Interactions: yes
                 Anisotropic factor:    0.000 [-] (Relative), Radius:    0.770 [A], Framework-atom:  no
Pseudo Atom[   2] Name O        Oxidation: +0       Element: O    pdb-name: O    Scat. Types:   9   8 Mass=15.999400000 B-factor:1.000   
                 Charge=0.000000000          Polarization=0.000000000  [A^3] (considered a chargeless atom and no polarization)  Interactions: yes
                 Anisotropic factor:    0.000 [-] (Relative), Radius:    0.730 [A], Framework-atom:  no
Pseudo Atom[   3] Name H        Oxidation: +0       Element: H    pdb-name: H    Scat. Types:   1   1 Mass=1.007940000  B-factor:1.000   
                 Charge=0.000000000          Polarization=0.000000000  [A^3] (considered a chargeless atom and no polarization)  Interactions: yes
                 Anisotropic factor:    0.000 [-] (Relative), Radius:    0.320 [A], Framework-atom:  no
Pseudo Atom[   4] Name N        Oxidation: +0       Element: N    pdb-name: N    Scat. Types:   8   7 Mass=14.006700000 B-factor:1.000   
                 Charge=0.000000000          Polarization=0.000000000  [A^3] (considered a chargeless atom and no polarization)  Interactions: yes
                 Anisotropic factor:    0.000 [-] (Relative), Radius:    0.750 [A], Framework-atom:  no
Pseudo Atom[   5] Name F        Oxidation: +0       Element: F    pdb-name: F    Scat. Types:  10   9 Mass=18.998400000 B-factor:1.000   
                 Charge=0.000000000          Polarization=0.000000000  [A^3] (considered a chargeless atom and no polarization)  Interactions: yes
                 Anisotropic factor:    0.000 [-] (Relative), Radius:    0.720 [A], Framework-atom:  no
Pseudo Atom[   6] Name Na       Oxidation: +0       Element: Na   pdb-name: Na   Scat. Types:  12  11 Mass=22.989770000 B-factor:1.000   
                 Charge=0.000000000          Polarization=0.000000000  [A^3] (considered a chargeless atom and no polarization)  Interactions: yes
                 Anisotropic factor:    0.000 [-] (Relative), Radius:    1.540 [A], Framework-atom:  no
Pseudo Atom[   7] Name Mg       Oxidation: +0       Element: Mg   pdb-name: Mg   Scat. Types:  13  12 Mass=24.305000000 B-factor:1.000   
                 Charge=0.000000000          Polarization=0.000000000  [A^3] (considered a chargeless atom and no polarization)  Interactions: yes
                 Anisotropic factor:    0.000 [-] (Relative), Radius:    1.360 [A], Framework-atom:  no
Pseudo Atom[   8] Name Al       Oxidation: +0       Element: Al   pdb-name: Al   Scat. Types:  14  13 Mass=26.981540000 B-factor:1.000   
                 Charge=0.000000000          Polarization=0.000000000  [A^3] (considered a chargeless atom and no polarization)  Interactions: yes
                 Anisotropic factor:    0.000 [-] (Relative), Radius:    1.180 [A], Framework-atom:  no
Pseudo Atom[   9] Name Si       Oxidation: +0       Element: Si   pdb-name: Si   Scat. Types:  15  14 Mass=28.085500000 B-factor:1.000   
                 Charge=0.000000000          Polarization=0.000000000  [A^3] (considered a chargeless atom and no polarization)  Interactions: yes
                 Anisotropic factor:    0.000 [-] (Relative), Radius:    1.110 [A], Framework-atom:  no
Pseudo Atom[  10] Name P        Oxidation: +0       Element: P    pdb-name: P    Scat. Types:  16  15 Mass=30.973760000 B-factor:1.000   
                 Charge=0.000000000          Polarization=0.000000000  [A^3] (considered a chargeless atom and no polarization)  Interactions: yes
                 Anisotropic factor:    0.000 [-] (Relative), Radius:    1.060 [A], Framework-atom:  no
Pseudo Atom[  11] Name S        Oxidation: +0       Element: S    pdb-name: S    Scat. Types:  17  14 Mass=32.065000000 B-factor:1.000   
                 Charge=0.000000000          Polarization=0.000000000  [A^3] (considered a chargeless atom and no polarization)  Interactions: yes
                 Anisotropic factor:    0.000 [-] (Relative), Radius:    1.020 [A], Framework-atom:  no
Pseudo Atom[  12] Name Cl       Oxidation: +0       Element: Cl   pdb-name: Cl   Scat. Types:  18  17 Mass=35.453000000 B-factor:1.000   
                 Charge=0.000000000          Polarization=0.000000000  [A^3] (considered a chargeless atom and no polarization)  Interactions: yes
                 Anisotropic factor:    0.000 [-] (Relative), Radius:    0.990 [A], Framework-atom:  no
Pseudo Atom[  13] Name K        Oxidation: +0       Element: K    pdb-name: K    Scat. Types:  20  19 Mass=39.098300000 B-factor:1.000   
                 Charge=0.000000000          Polarization=0.000000000  [A^3] (considered a chargeless atom and no polarization)  Interactions: yes
                 Anisotropic factor:    0.000 [-] (Relative), Radius:    2.030 [A], Framework-atom:  no
Pseudo Atom[  14] Name Ca       Oxidation: +0       Element: Ca   pdb-name: Ca   Scat. Types:  21  20 Mass=40.078000000 B-factor:1.000   
                 Charge=0.000000000          Polarization=0.000000000  [A^3] (considered a chargeless atom and no polarization)  Interactions: yes
                 Anisotropic factor:    0.000 [-] (Relative), Radius:    1.740 [A], Framework-atom:  no
Pseudo Atom[  15] Name Sc       Oxidation: +0       Element: Sc   pdb-name: Sc   Scat. Types:  22  21 Mass=44.955910000 B-factor:1.000   
                 Charge=0.000000000          Polarization=0.000000000  [A^3] (considered a chargeless atom and no polarization)  Interactions: yes
                 Anisotropic factor:    0.000 [-] (Relative), Radius:    1.440 [A], Framework-atom:  no
Pseudo Atom[  16] Name Ti       Oxidation: +0       Element: Ti   pdb-name: Ti   Scat. Types:  23  22 Mass=47.867000000 B-factor:1.000   
                 Charge=0.000000000          Polarization=0.000000000  [A^3] (considered a chargeless atom and no polarization)  Interactions: yes
                 Anisotropic factor:    0.000 [-] (Relative), Radius:    1.320 [A], Framework-atom:  no
Pseudo Atom[  17] Name V        Oxidation: +0       Element: V    pdb-name: V    Scat. Types:  24  23 Mass=50.941500000 B-factor:1.000   
                 Charge=0.000000000          Polarization=0.000000000  [A^3] (considered a chargeless atom and no polarization)  Interactions: yes
                 Anisotropic factor:    0.000 [-] (Relative), Radius:    1.220 [A], Framework-atom:  no
Pseudo Atom[  18] Name Cr       Oxidation: +0       Element: Cr   pdb-name: Cr   Scat. Types:  25  24 Mass=51.996100000 B-factor:1.000   
                 Charge=0.000000000          Polarization=0.000000000  [A^3] (considered a chargeless atom and no polarization)  Interactions: yes
                 Anisotropic factor:    0.000 [-] (Relative), Radius:    1.180 [A], Framework-atom:  no
Pseudo Atom[  19] Name Mn       Oxidation: +0       Element: Mn   pdb-name: Mn   Scat. Types:  26  25 Mass=54.938050000 B-factor:1.000   
                 Charge=0.000000000          Polarization=0.000000000  [A^3] (considered a chargeless atom and no polarization)  Interactions: yes
                 Anisotropic factor:    0.000 [-] (Relative), Radius:    1.170 [A], Framework-atom:  no
Pseudo Atom[  20] Name Fe       Oxidation: +0       Element: Fe   pdb-name: Fe   Scat. Types:  27  26 Mass=55.845000000 B-factor:1.000   
                 Charge=0.000000000          Polarization=0.000000000  [A^3] (considered a chargeless atom and no polarization)  Interactions: yes
                 Anisotropic factor:    0.000 [-] (Relative), Radius:    1.170 [A], Framework-atom:  no
Pseudo Atom[  21] Name Co       Oxidation: +0       Element: Co   pdb-name: Co   Scat. Types:  28  27 Mass=58.933190000 B-factor:1.000   
                 Charge=0.000000000          Polarization=0.000000000  [A^3] (considered a chargeless atom and no polarization)  Interactions: yes
                 Anisotropic factor:    0.000 [-] (Relative), Radius:    1.160 [A], Framework-atom:  no
Pseudo Atom[  22] Name Ni       Oxidation: +0       Element: Ni   pdb-name: Ni   Scat. Types:  29  28 Mass=58.693400000 B-factor:1.000   
                 Charge=0.000000000          Polarization=0.000000000  [A^3] (considered a chargeless atom and no polarization)  Interactions: yes
                 Anisotropic factor:    0.000 [-] (Relative), Radius:    1.150 [A], Framework-atom:  no
Pseudo Atom[  23] Name Cu       Oxidation: +0       Element: Cu   pdb-name: Cu   Scat. Types:  30  29 Mass=63.546000000 B-factor:1.000   
                 Charge=0.000000000          Polarization=0.000000000  [A^3] (considered a chargeless atom and no polarization)  Interactions: yes
                 Anisotropic factor:    0.000 [-] (Relative), Radius:    1.170 [A], Framework-atom:  no
Pseudo Atom[  24] Name Zn       Oxidation: +0       Element: Zn   pdb-name: Zn   Scat. Types:  31  30 Mass=65.409000000 B-factor:1.000   
                 Charge=0.000000000          Polarization=0.000000000  [A^3] (considered a chargeless atom and no polarization)  Interactions: yes
                 Anisotropic factor:    0.000 [-] (Relative), Radius:    1.250 [A], Framework-atom:  no
Pseudo Atom[  25] Name Zr       Oxidation: +0       Element: Zr   pdb-name: Zr   Scat. Types:  41  40 Mass=91.224000000 B-factor:1.000   
                 Charge=0.000000000          Polarization=0.000000000  [A^3] (considered a chargeless atom and no polarization)  Interactions: yes
                 Anisotropic factor:    0.000 [-] (Relative), Radius:    1.450 [A], Framework-atom:  no
Pseudo Atom[  26] Name Mo       Oxidation: +0       Element: Mo   pdb-name: Mo   Scat. Types:  43  42 Mass=95.940000000 B-factor:1.000   
                 Charge=0.000000000          Polarization=0.000000000  [A^3] (considered a chargeless atom and no polarization)  Interactions: yes
                 Anisotropic factor:    0.000 [-] (Relative), Radius:    1.300 [A], Framework-atom:  no
Pseudo Atom[  27] Name Be       Oxidation: +0       Element: Be   pdb-name: Be   Scat. Types:   5   4 Mass=9.012180000  B-factor:1.000   
                 Charge=0.000000000          Polarization=0.000000000  [A^3] (considered a chargeless atom and no polarization)  Interactions: yes
                 Anisotropic factor:    0.000 [-] (Relative), Radius:    0.900 [A], Framework-atom:  no
Pseudo Atom[  28] Name B        Oxidation: +0       Element: B    pdb-name: B    Scat. Types:   6   4 Mass=10.811000000 B-factor:1.000   
                 Charge=0.000000000          Polarization=0.000000000  [A^3] (considered a chargeless atom and no polarization)  Interactions: yes
                 Anisotropic factor:    0.000 [-] (Relative), Radius:    0.820 [A], Framework-atom:  no
Pseudo Atom[  29] Name Ga       Oxidation: +0       Element: Ga   pdb-name: Ga   Scat. Types:  32  31 Mass=69.723000000 B-factor:1.000   
                 Charge=0.000000000          Polarization=0.000000000  [A^3] (considered a chargeless atom and no polarization)  Interactions: yes
                 Anisotropic factor:    0.000 [-] (Relative), Radius:    1.260 [A], Framework-atom:  no
Pseudo Atom[  30] Name Ge       Oxidation: +0       Element: Ge   pdb-name: Ge   Scat. Types:  33  32 Mass=72.640000000 B-factor:1.000   
                 Charge=0.000000000          Polarization=0.000000000  [A^3] (considered a chargeless atom and no polarization)  Interactions: yes
                 Anisotropic factor:    0.000 [-] (Relative), Radius:    1.220 [A], Framework-atom:  no
Pseudo Atom[  31] Name As       Oxidation: +0       Element: As   pdb-name: As   Scat. Types:  34  33 Mass=74.921600000 B-factor:1.000   
                 Charge=0.000000000          Polarization=0.000000000  [A^3] (considered a chargeless atom and no polarization)  Interactions: yes
                 Anisotropic factor:    0.000 [-] (Relative), Radius:    1.200 [A], Framework-atom:  no
Pseudo Atom[  32] Name Se       Oxidation: +0       Element: Se   pdb-name: Se   Scat. Types:  35  34 Mass=78.960000000 B-factor:1.000   
                 Charge=0.000000000          Polarization=0.000000000  [A^3] (considered a chargeless atom and no polarization)  Interactions: yes
                 Anisotropic factor:    0.000 [-] (Relative), Radius:    1.160 [A], Framework-atom:  no
Pseudo Atom[  33] Name Br       Oxidation: +0       Element: Br   pdb-name: Br   Scat. Types:  36  35 Mass=79.904000000 B-factor:1.000   
                 Charge=0.000000000          Polarization=0.000000000  [A^3] (considered a chargeless atom and no polarization)  Interactions: yes
                 Anisotropic factor:    0.000 [-] (Relative), Radius:    1.140 [A], Framework-atom:  no
Pseudo Atom[  34] Name Rb       Oxidation: +0       Element: Rb   pdb-name: Rb   Scat. Types:  38  37 Mass=85.467800000 B-factor:1.000   
                 Charge=0.000000000          Polarization=0.000000000  [A^3] (considered a chargeless atom and no polarization)  Interactions: yes
                 Anisotropic factor:    0.000 [-] (Relative), Radius:    2.160 [A], Framework-atom:  no
Pseudo Atom[  35] Name Sr       Oxidation: +0       Element: Sr   pdb-name: Sr   Scat. Types:  39  38 Mass=87.620000000 B-factor:1.000   
                 Charge=0.000000000          Polarization=0.000000000  [A^3] (considered a chargeless atom and no polarization)  Interactions: yes
                 Anisotropic factor:    0.000 [-] (Relative), Radius:    1.910 [A], Framework-atom:  no
Pseudo Atom[  36] Name Y        Oxidation: +0       Element: Y    pdb-name: Y    Scat. Types:  40  39 Mass=88.905850000 B-factor:1.000   
                 Charge=0.000000000          Polarization=0.000000000  [A^3] (considered a chargeless atom and no polarization)  Interactions: yes
                 Anisotropic factor:    0.000 [-] (Relative), Radius:    1.620 [A], Framework-atom:  no
Pseudo Atom[  37] Name Nb       Oxidation: +0       Element: Nb   pdb-name: Nb   Scat. Types:  42  41 Mass=92.906380000 B-factor:1.000   
                 Charge=0.000000000          Polarization=0.000000000  [A^3] (considered a chargeless atom and no polarization)  Interactions: yes
                 Anisotropic factor:    0.000 [-] (Relative), Radius:    1.340 [A], Framework-atom:  no
Pseudo Atom[  38] Name Tc       Oxidation: +0       Element: Tc   pdb-name: Tc   Scat. Types:  44  43 Mass=98.906300000 B-factor:1.000   
                 Charge=0.000000000          Polarization=0.000000000  [A^3] (considered a chargeless atom and no polarization)  Interactions: yes
                 Anisotropic factor:    0.000 [-] (Relative), Radius:    1.270 [A], Framework-atom:  no
Pseudo Atom[  39] Name Ru       Oxidation: +0       Element: Ru   pdb-name: Ru   Scat. Types:  45  44 Mass=101.070000000 B-factor:1.000   
                 Charge=0.000000000          Polarization=0.000000000  [A^3] (considered a chargeless atom and no polarization)  Interactions: yes
                 Anisotropic factor:    0.000 [-] (Relative), Radius:    1.250 [A], Framework-atom:  no
Pseudo Atom[  40] Name Rh       Oxidation: +0       Element: Rh   pdb-name: Rh   Scat. Types:  46  45 Mass=102.905500000 B-factor:1.000   
                 Charge=0.000000000          Polarization=0.000000000  [A^3] (considered a chargeless atom and no polarization)  Interactions: yes
                 Anisotropic factor:    0.000 [-] (Relative), Radius:    1.250 [A], Framework-atom:  no
Pseudo Atom[  41] Name Pd       Oxidation: +0       Element: Pd   pdb-name: Pd   Scat. Types:  47  46 Mass=106.420000000 B-factor:1.000   
                 Charge=0.000000000          Polarization=0.000000000  [A^3] (considered a chargeless atom and no polarization)  Interactions: yes
                 Anisotropic factor:    0.000 [-] (Relative), Radius:    1.280 [A], Framework-atom:  no
Pseudo Atom[  42] Name Ag       Oxidation: +0       Element: Ag   pdb-name: Ag   Scat. Types:  48  47 Mass=107.868200000 B-factor:1.000   
                 Charge=0.000000000          Polarization=0.000000000  [A^3] (considered a chargeless atom and no polarization)  Interactions: yes
                 Anisotropic factor:    0.000 [-] (Relative), Radius:    1.340 [A], Framework-atom:  no
Pseudo Atom[  43] Name Cd       Oxidation: +0       Element: Cd   pdb-name: Cd   Scat. Types:  49  48 Mass=112.411000000 B-factor:1.000   
                 Charge=0.000000000          Polarization=0.000000000  [A^3] (considered a chargeless atom and no polarization)  Interactions: yes
                 Anisotropic factor:    0.000 [-] (Relative), Radius:    1.480 [A], Framework-atom:  no
Pseudo Atom[  44] Name In       Oxidation: +0       Element: In   pdb-name: In   Scat. Types:  50  49 Mass=114.818000000 B-factor:1.000   
                 Charge=0.000000000          Polarization=0.000000000  [A^3] (considered a chargeless atom and no polarization)  Interactions: yes
                 Anisotropic factor:    0.000 [-] (Relative), Radius:    1.440 [A], Framework-atom:  no
Pseudo Atom[  45] Name Sn       Oxidation: +0       Element: Sn   pdb-name: Sn   Scat. Types:  51  50 Mass=118.710000000 B-factor:1.000   
                 Charge=0.000000000          Polarization=0.000000000  [A^3] (considered a chargeless atom and no polarization)  Interactions: yes
                 Anisotropic factor:    0.000 [-] (Relative), Radius:    1.410 [A], Framework-atom:  no
Pseudo Atom[  46] Name Sb       Oxidation: +0       Element: Sb   pdb-name: Sb   Scat. Types:  52  51 Mass=121.760000000 B-factor:1.000   
                 Charge=0.000000000          Polarization=0.000000000  [A^3] (considered a chargeless atom and no polarization)  Interactions: yes
                 Anisotropic factor:    0.000 [-] (Relative), Radius:    1.400 [A], Framework-atom:  no
Pseudo Atom[  47] Name Te       Oxidation: +0       Element: Te   pdb-name: Te   Scat. Types:  53  52 Mass=127.600000000 B-factor:1.000   
                 Charge=0.000000000          Polarization=0.000000000  [A^3] (considered a chargeless atom and no polarization)  Interactions: yes
                 Anisotropic factor:    0.000 [-] (Relative), Radius:    1.360 [A], Framework-atom:  no
Pseudo Atom[  48] Name Cs       Oxidation: +0       Element: Cs   pdb-name: Cs   Scat. Types:  56  55 Mass=132.905450000 B-factor:1.000   
                 Charge=0.000000000          Polarization=0.000000000  [A^3] (considered a chargeless atom and no polarization)  Interactions: yes
                 Anisotropic factor:    0.000 [-] (Relative), Radius:    2.350 [A], Framework-atom:  no
Pseudo Atom[  49] Name Ba       Oxidation: +0       Element: Ba   pdb-name: Ba   Scat. Types:  57  56 Mass=137.327000000 B-factor:1.000   
                 Charge=0.000000000          Polarization=0.000000000  [A^3] (considered a chargeless atom and no polarization)  Interactions: yes
                 Anisotropic factor:    0.000 [-] (Relative), Radius:    1.980 [A], Framework-atom:  no
Pseudo Atom[  50] Name La       Oxidation: +0       Element: La   pdb-name: La   Scat. Types:  58  57 Mass=138.905470000 B-factor:1.000   
                 Charge=0.000000000          Polarization=0.000000000  [A^3] (considered a chargeless atom and no polarization)  Interactions: yes
                 Anisotropic factor:    0.000 [-] (Relative), Radius:    1.690 [A], Framework-atom:  no
Pseudo Atom[  51] Name Ce       Oxidation: +0       Element: Ce   pdb-name: Ce   Scat. Types:  59  58 Mass=140.116000000 B-factor:1.000   
                 Charge=0.000000000          Polarization=0.000000000  [A^3] (considered a chargeless atom and no polarization)  Interactions: yes
                 Anisotropic factor:    0.000 [-] (Relative), Radius:    1.650 [A], Framework-atom:  no
Pseudo Atom[  52] Name Pr       Oxidation: +0       Element: Pr   pdb-name: Pr   Scat. Types:  60  59 Mass=140.904650000 B-factor:1.000   
                 Charge=0.000000000          Polarization=0.000000000  [A^3] (considered a chargeless atom and no polarization)  Interactions: yes
                 Anisotropic factor:    0.000 [-] (Relative), Radius:    1.650 [A], Framework-atom:  no
Pseudo Atom[  53] Name Nd       Oxidation: +0       Element: Nd   pdb-name: Nd   Scat. Types:  61  60 Mass=144.242000000 B-factor:1.000   
                 Charge=0.000000000          Polarization=0.000000000  [A^3] (considered a chargeless atom and no polarization)  Interactions: yes
                 Anisotropic factor:    0.000 [-] (Relative), Radius:    1.640 [A], Framework-atom:  no
Pseudo Atom[  54] Name Pm       Oxidation: +0       Element: Pm   pdb-name: Pm   Scat. Types:  62  61 Mass=146.915100000 B-factor:1.000   
                 Charge=0.000000000          Polarization=0.000000000  [A^3] (considered a chargeless atom and no polarization)  Interactions: yes
                 Anisotropic factor:    0.000 [-] (Relative), Radius:    1.630 [A], Framework-atom:  no
Pseudo Atom[  55] Name Sm       Oxidation: +0       Element: Sm   pdb-name: Sm   Scat. Types:  63  62 Mass=150.360000000 B-factor:1.000   
                 Charge=0.000000000          Polarization=0.000000000  [A^3] (considered a chargeless atom and no polarization)  Interactions: yes
                 Anisotropic factor:    0.000 [-] (Relative), Radius:    1.620 [A], Framework-atom:  no
Pseudo Atom[  56] Name Eu       Oxidation: +0       Element: Eu   pdb-name: Eu   Scat. Types:  64  63 Mass=151.964000000 B-factor:1.000   
                 Charge=0.000000000          Polarization=0.000000000  [A^3] (considered a chargeless atom and no polarization)  Interactions: yes
                 Anisotropic factor:    0.000 [-] (Relative), Radius:    1.850 [A], Framework-atom:  no
Pseudo Atom[  57] Name Gd       Oxidation: +0       Element: Gd   pdb-name: Gd   Scat. Types:  65  64 Mass=157.250000000 B-factor:1.000   
                 Charge=0.000000000          Polarization=0.000000000  [A^3] (considered a chargeless atom and no polarization)  Interactions: yes
                 Anisotropic factor:    0.000 [-] (Relative), Radius:    1.610 [A], Framework-atom:  no
Pseudo Atom[  58] Name Tb       Oxidation: +0       Element: Tb   pdb-name: Tb   Scat. Types:  66  65 Mass=158.925350000 B-factor:1.000   
                 Charge=0.000000000          Polarization=0.000000000  [A^3] (considered a chargeless atom and no polarization)  Interactions: yes
                 Anisotropic factor:    0.000 [-] (Relative), Radius:    1.590 [A], Framework-atom:  no
Pseudo Atom[  59] Name Dy       Oxidation: +0       Element: Dy   pdb-name: Dy   Scat. Types:  67  66 Mass=162.500000000 B-factor:1.000   
                 Charge=0.000000000          Polarization=0.000000000  [A^3] (considered a chargeless atom and no polarization)  Interactions: yes
                 Anisotropic factor:    0.000 [-] (Relative), Radius:    1.590 [A], Framework-atom:  no
Pseudo Atom[  60] Name Ho       Oxidation: +0       Element: Ho   pdb-name: Ho   Scat. Types:  68  67 Mass=164.930320000 B-factor:1.000   
                 Charge=0.000000000          Polarization=0.000000000  [A^3] (considered a chargeless atom and no polarization)  Interactions: yes
                 Anisotropic factor:    0.000 [-] (Relative), Radius:    1.580 [A], Framework-atom:  no
Pseudo Atom[  61] Name Er       Oxidation: +0       Element: Er   pdb-name: Er   Scat. Types:  69  68 Mass=167.259000000 B-factor:1.000   
                 Charge=0.000000000          Polarization=0.000000000  [A^3] (considered a chargeless atom and no polarization)  Interactions: yes
                 Anisotropic factor:    0.000 [-] (Relative), Radius:    1.570 [A], Framework-atom:  no
Pseudo Atom[  62] Name Tm       Oxidation: +0       Element: Tm   pdb-name: Tm   Scat. Types:  70  69 Mass=168.934210000 B-factor:1.000   
                 Charge=0.000000000          Polarization=0.000000000  [A^3] (considered a chargeless atom and no polarization)  Interactions: yes
                 Anisotropic factor:    0.000 [-] (Relative), Radius:    1.560 [A], Framework-atom:  no
Pseudo Atom[  63] Name Yb       Oxidation: +0       Element: Yb   pdb-name: Yb   Scat. Types:  71  70 Mass=173.040000000 B-factor:1.000   
                 Charge=0.000000000          Polarization=0.000000000  [A^3] (considered a chargeless atom and no polarization)  Interactions: yes
                 Anisotropic factor:    0.000 [-] (Relative), Radius:    1.740 [A], Framework-atom:  no
Pseudo Atom[  64] Name Lu       Oxidation: +0       Element: Lu   pdb-name: Lu   Scat. Types:  72  71 Mass=174.967000000 B-factor:1.000   
                 Charge=0.000000000          Polarization=0.000000000  [A^3] (considered a chargeless atom and no polarization)  Interactions: yes
                 Anisotropic factor:    0.000 [-] (Relative), Radius:    1.560 [A], Framework-atom:  no
Pseudo Atom[  65] Name Hf       Oxidation: +0       Element: Hf   pdb-name: Hf   Scat. Types:  73  72 Mass=178.490000000 B-factor:1.000   
                 Charge=0.000000000          Polarization=0.000000000  [A^3] (considered a chargeless atom and no polarization)  Interactions: yes
                 Anisotropic factor:    0.000 [-] (Relative), Radius:    1.440 [A], Framework-atom:  no
Pseudo Atom[  66] Name Ta       Oxidation: +0       Element: Ta   pdb-name: Ta   Scat. Types:  74  73 Mass=180.947900000 B-factor:1.000   
                 Charge=0.000000000          Polarization=0.000000000  [A^3] (considered a chargeless atom and no polarization)  Interactions: yes
                 Anisotropic factor:    0.000 [-] (Relative), Radius:    1.340 [A], Framework-atom:  no
Pseudo Atom[  67] Name W        Oxidation: +0       Element: W    pdb-name: W    Scat. Types:  75  74 Mass=183.840000000 B-factor:1.000   
                 Charge=0.000000000          Polarization=0.000000000  [A^3] (considered a chargeless atom and no polarization)  Interactions: yes
                 Anisotropic factor:    0.000 [-] (Relative), Radius:    1.300 [A], Framework-atom:  no
Pseudo Atom[  68] Name Re       Oxidation: +0       Element: Re   pdb-name: Re   Scat. Types:  76  75 Mass=186.207000000 B-factor:1.000   
                 Charge=0.000000000          Polarization=0.000000000  [A^3] (considered a chargeless atom and no polarization)  Interactions: yes
                 Anisotropic factor:    0.000 [-] (Relative), Radius:    1.280 [A], Framework-atom:  no
Pseudo Atom[  69] Name Os       Oxidation: +0       Element: Os   pdb-name: Os   Scat. Types:  77  76 Mass=190.230000000 B-factor:1.000   
                 Charge=0.000000000          Polarization=0.000000000  [A^3] (considered a chargeless atom and no polarization)  Interactions: yes
                 Anisotropic factor:    0.000 [-] (Relative), Radius:    1.260 [A], Framework-atom:  no
Pseudo Atom[  70] Name Ir       Oxidation: +0       Element: Ir   pdb-name: Ir   Scat. Types:  78  77 Mass=192.217000000 B-factor:1.000   
                 Charge=0.000000000          Polarization=0.000000000  [A^3] (considered a chargeless atom and no polarization)  Interactions: yes
                 Anisotropic factor:    0.000 [-] (Relative), Radius:    1.270 [A], Framework-atom:  no
Pseudo Atom[  71] Name Pt       Oxidation: +0       Element: Pt   pdb-name: Pt   Scat. Types:  79  78 Mass=195.084000000 B-factor:1.000   
                 Charge=0.000000000          Polarization=0.000000000  [A^3] (considered a chargeless atom and no polarization)  Interactions: yes
                 Anisotropic factor:    0.000 [-] (Relative), Radius:    1.300 [A], Framework-atom:  no
Pseudo Atom[  72] Name Au       Oxidation: +0       Element: Au   pdb-name: Au   Scat. Types:  80  79 Mass=196.966570000 B-factor:1.000   
                 Charge=0.000000000          Polarization=0.000000000  [A^3] (considered a chargeless atom and no polarization)  Interactions: yes
                 Anisotropic factor:    0.000 [-] (Relative), Radius:    1.340 [A], Framework-atom:  no
Pseudo Atom[  73] Name Hg       Oxidation: +0       Element: Hg   pdb-name: Hg   Scat. Types:  81  80 Mass=200.590000000 B-factor:1.000   
                 Charge=0.000000000          Polarization=0.000000000  [A^3] (considered a chargeless atom and no polarization)  Interactions: yes
                 Anisotropic factor:    0.000 [-] (Relative), Radius:    1.490 [A], Framework-atom:  no
Pseudo Atom[  74] Name Tl       Oxidation: +0       Element: Tl   pdb-name: Tl   Scat. Types:  82  81 Mass=204.383300000 B-factor:1.000   
                 Charge=0.000000000          Polarization=0.000000000  [A^3] (considered a chargeless atom and no polarization)  Interactions: yes
                 Anisotropic factor:    0.000 [-] (Relative), Radius:    1.480 [A], Framework-atom:  no
Pseudo Atom[  75] Name Pb       Oxidation: +0       Element: Pb   pdb-name: Pb   Scat. Types:  83  82 Mass=207.200000000 B-factor:1.000   
                 Charge=0.000000000          Polarization=0.000000000  [A^3] (considered a chargeless atom and no polarization)  Interactions: yes
                 Anisotropic factor:    0.000 [-] (Relative), Radius:    1.470 [A], Framework-atom:  no
Pseudo Atom[  76] Name Bi       Oxidation: +0       Element: Bi   pdb-name: Bi   Scat. Types:  84  83 Mass=208.980400000 B-factor:1.000   
                 Charge=0.000000000          Polarization=0.000000000  [A^3] (considered a chargeless atom and no polarization)  Interactions: yes
                 Anisotropic factor:    0.000 [-] (Relative), Radius:    1.460 [A], Framework-atom:  no
Pseudo Atom[  77] Name Po       Oxidation: +0       Element: Po   pdb-name: Po   Scat. Types:  85  84 Mass=208.982400000 B-factor:1.000   
                 Charge=0.000000000          Polarization=0.000000000  [A^3] (considered a chargeless atom and no polarization)  Interactions: yes
                 Anisotropic factor:    0.000 [-] (Relative), Radius:    1.460 [A], Framework-atom:  no
Pseudo Atom[  78] Name At       Oxidation: +0       Element: At   pdb-name: At   Scat. Types:  86  85 Mass=209.987100000 B-factor:1.000   
                 Charge=0.000000000          Polarization=0.000000000  [A^3] (considered a chargeless atom and no polarization)  Interactions: yes
                 Anisotropic factor:    0.000 [-] (Relative), Radius:    1.450 [A], Framework-atom:  no
Pseudo Atom[  79] Name Rn       Oxidation: +0       Element: Rn   pdb-name: Rn   Scat. Types:  87  86 Mass=222.017600000 B-factor:1.000   
                 Charge=0.000000000          Polarization=0.000000000  [A^3] (considered a chargeless atom and no polarization)  Interactions: yes
                 Anisotropic factor:    0.000 [-] (Relative), Radius:    2.000 [A], Framework-atom:  no
Pseudo Atom[  80] Name Ra       Oxidation: +0       Element: Ra   pdb-name: Ra   Scat. Types:  89  88 Mass=226.025400000 B-factor:1.000   
                 Charge=0.000000000          Polarization=0.000000000  [A^3] (considered a chargeless atom and no polarization)  Interactions: yes
                 Anisotropic factor:    0.000 [-] (Relative), Radius:    2.000 [A], Framework-atom:  no
Pseudo Atom[  81] Name Ac       Oxidation: +0       Element: Ac   pdb-name: Ac   Scat. Types:  90  89 Mass=227.027800000 B-factor:1.000   
                 Charge=0.000000000          Polarization=0.000000000  [A^3] (considered a chargeless atom and no polarization)  Interactions: yes
                 Anisotropic factor:    0.000 [-] (Relative), Radius:    2.000 [A], Framework-atom:  no
Pseudo Atom[  82] Name Th       Oxidation: +0       Element: Th   pdb-name: Th   Scat. Types:  91  90 Mass=232.038060000 B-factor:1.000   
                 Charge=0.000000000          Polarization=0.000000000  [A^3] (considered a chargeless atom and no polarization)  Interactions: yes
                 Anisotropic factor:    0.000 [-] (Relative), Radius:    1.650 [A], Framework-atom:  no
Pseudo Atom[  83] Name Pa       Oxidation: +0       Element: Pa   pdb-name: Pa   Scat. Types:  92  91 Mass=231.035880000 B-factor:1.000   
                 Charge=0.000000000          Polarization=0.000000000  [A^3] (considered a chargeless atom and no polarization)  Interactions: yes
                 Anisotropic factor:    0.000 [-] (Relative), Radius:    2.000 [A], Framework-atom:  no
Pseudo Atom[  84] Name U        Oxidation: +0       Element: U    pdb-name: U    Scat. Types:  93  92 Mass=238.028910000 B-factor:1.000   
                 Charge=0.000000000          Polarization=0.000000000  [A^3] (considered a chargeless atom and no polarization)  Interactions: yes
                 Anisotropic factor:    0.000 [-] (Relative), Radius:    1.420 [A], Framework-atom:  no
Pseudo Atom[  85] Name Np       Oxidation: +0       Element: Np   pdb-name: Np   Scat. Types:  94  93 Mass=237.048200000 B-factor:1.000   
                 Charge=0.000000000          Polarization=0.000000000  [A^3] (considered a chargeless atom and no polarization)  Interactions: yes
                 Anisotropic factor:    0.000 [-] (Relative), Radius:    2.000 [A], Framework-atom:  no
Pseudo Atom[  86] Name Pu       Oxidation: +0       Element: Pu   pdb-name: Pu   Scat. Types:  95  94 Mass=244.064200000 B-factor:1.000   
                 Charge=0.000000000          Polarization=0.000000000  [A^3] (considered a chargeless atom and no polarization)  Interactions: yes
                 Anisotropic factor:    0.000 [-] (Relative), Radius:    2.000 [A], Framework-atom:  no
Pseudo Atom[  87] Name Am       Oxidation: +0       Element: Am   pdb-name: Am   Scat. Types:  96  95 Mass=243.061400000 B-factor:1.000   
                 Charge=0.000000000          Polarization=0.000000000  [A^3] (considered a chargeless atom and no polarization)  Interactions: yes
                 Anisotropic factor:    0.000 [-] (Relative), Radius:    2.000 [A], Framework-atom:  no
Pseudo Atom[  88] Name Cm       Oxidation: +0       Element: Cm   pdb-name: Cm   Scat. Types:  97  96 Mass=247.070300000 B-factor:1.000   
                 Charge=0.000000000          Polarization=0.000000000  [A^3] (considered a chargeless atom and no polarization)  Interactions: yes
                 Anisotropic factor:    0.000 [-] (Relative), Radius:    2.000 [A], Framework-atom:  no
Pseudo Atom[  89] Name Bk       Oxidation: +0       Element: Bk   pdb-name: Bk   Scat. Types:  98  97 Mass=247.070300000 B-factor:1.000   
                 Charge=0.000000000          Polarization=0.000000000  [A^3] (considered a chargeless atom and no polarization)  Interactions: yes
                 Anisotropic factor:    0.000 [-] (Relative), Radius:    2.000 [A], Framework-atom:  no
Pseudo Atom[  90] Name Cf       Oxidation: +0       Element: Cf   pdb-name: Cf   Scat. Types:  99  98 Mass=251.079600000 B-factor:1.000   
                 Charge=0.000000000          Polarization=0.000000000  [A^3] (considered a chargeless atom and no polarization)  Interactions: yes
                 Anisotropic factor:    0.000 [-] (Relative), Radius:    2.000 [A], Framework-atom:  no
Pseudo Atom[  91] Name Es       Oxidation: +0       Element: Es   pdb-name: Es   Scat. Types:  -1  -1 Mass=252.082900000 B-factor:1.000   
                 Charge=0.000000000          Polarization=0.000000000  [A^3] (considered a chargeless atom and no polarization)  Interactions: yes
                 Anisotropic factor:    0.000 [-] (Relative), Radius:    2.000 [A], Framework-atom:  no
Pseudo Atom[  92] Name Fm       Oxidation: +0       Element: Fm   pdb-name: Fm   Scat. Types:  -1  -1 Mass=257.095100000 B-factor:1.000   
                 Charge=0.000000000          Polarization=0.000000000  [A^3] (considered a chargeless atom and no polarization)  Interactions: yes
                 Anisotropic factor:    0.000 [-] (Relative), Radius:    2.000 [A], Framework-atom:  no
Pseudo Atom[  93] Name Md       Oxidation: +0       Element: Md   pdb-name: Md   Scat. Types:  -1  -1 Mass=258.095100000 B-factor:1.000   
                 Charge=0.000000000          Polarization=0.000000000  [A^3] (considered a chargeless atom and no polarization)  Interactions: yes
                 Anisotropic factor:    0.000 [-] (Relative), Radius:    2.000 [A], Framework-atom:  no
Pseudo Atom[  94] Name No       Oxidation: +0       Element: No   pdb-name: No   Scat. Types:  -1  -1 Mass=259.100900000 B-factor:1.000   
                 Charge=0.000000000          Polarization=0.000000000  [A^3] (considered a chargeless atom and no polarization)  Interactions: yes
                 Anisotropic factor:    0.000 [-] (Relative), Radius:    2.000 [A], Framework-atom:  no
Pseudo Atom[  95] Name He       Oxidation: +0       Element: He   pdb-name: He   Scat. Types:   3   2 Mass=4.002600000  B-factor:1.000   
                 Charge=0.000000000          Polarization=0.000000000  [A^3] (considered a chargeless atom and no polarization)  Interactions: yes
                 Anisotropic factor:    0.000 [-] (Relative), Radius:    1.000 [A], Framework-atom:  no
Pseudo Atom[  96] Name O_co2    Oxidation: +0       Element: O    pdb-name: O    Scat. Types:   9   8 Mass=15.999400000 B-factor:1.000   
                 Charge=-0.350000000         Polarization=0.000000000  [A^3] (considered a charged atom and no polarization)  Interactions: yes
                 Anisotropic factor:    0.000 [-] (Relative), Radius:    0.680 [A], Framework-atom:  no
Pseudo Atom[  97] Name C_co2    Oxidation: +0       Element: C    pdb-name: C    Scat. Types:   7   6 Mass=12.010700000 B-factor:1.000   
                 Charge=0.700000000          Polarization=0.000000000  [A^3] (considered a charged atom and no polarization)  Interactions: yes
                 Anisotropic factor:    0.000 [-] (Relative), Radius:    0.720 [A], Framework-atom:  no
Pseudo Atom[  98] Name N_n2     Oxidation: +0       Element: N    pdb-name: N    Scat. Types:   8   7 Mass=14.006740000 B-factor:1.000   
                 Charge=-0.405000000         Polarization=0.000000000  [A^3] (considered a charged atom and no polarization)  Interactions: yes
                 Anisotropic factor:    0.000 [-] (Relative), Radius:    0.700 [A], Framework-atom:  no
Pseudo Atom[  99] Name N_com    Oxidation: +0       Element: -    pdb-name: N    Scat. Types:   0   7 Mass=0.000000000  B-factor:1.000   
                 Charge=0.810000000          Polarization=0.000000000  [A^3] (considered a charged atom and no polarization)  Interactions: yes
                 Anisotropic factor:    0.000 [-] (Relative), Radius:    0.700 [A], Framework-atom:  no
Pseudo Atom[ 100] Name O_o2     Oxidation: +0       Element: O    pdb-name: O    Scat. Types:   9   8 Mass=15.999400000 B-factor:1.000   
                 Charge=-0.112000000         Polarization=0.000000000  [A^3] (considered a charged atom and no polarization)  Interactions: yes
                 Anisotropic factor:    0.000 [-] (Relative), Radius:    0.700 [A], Framework-atom:  no
Pseudo Atom[ 101] Name O_com    Oxidation: +0       Element: -    pdb-name: O    Scat. Types:   0   8 Mass=0.000000000  B-factor:1.000   
                 Charge=0.224000000          Polarization=0.000000000  [A^3] (considered a charged atom and no polarization)  Interactions: yes
                 Anisotropic factor:    0.000 [-] (Relative), Radius:    0.700 [A], Framework-atom:  no
Pseudo Atom[ 102] Name Ar       Oxidation: +0       Element: Ar   pdb-name: Ar   Scat. Types:  19  18 Mass=39.948000000 B-factor:1.000   
                 Charge=0.000000000          Polarization=0.000000000  [A^3] (considered a chargeless atom and no polarization)  Interactions: yes
                 Anisotropic factor:    0.000 [-] (Relative), Radius:    0.700 [A], Framework-atom:  no
Pseudo Atom[ 103] Name CH4      Oxidation: +0       Element: C    pdb-name: C    Scat. Types:   7   6 Mass=16.042460000 B-factor:1.000   
                 Charge=0.000000000          Polarization=0.000000000  [A^3] (considered a chargeless atom and no polarization)  Interactions: yes
                 Anisotropic factor:    0.000 [-] (Absolute), Radius:    1.000 [A], Framework-atom:  no
Pseudo Atom[ 104] Name H_h2     Oxidation: +0       Element: H    pdb-name: H    Scat. Types:   1   1 Mass=1.007940000  B-factor:1.000   
                 Charge=0.468000000          Polarization=0.000000000  [A^3] (considered a charged atom and no polarization)  Interactions: yes
                 Anisotropic factor:    0.000 [-] (Relative), Radius:    0.700 [A], Framework-atom:  no
Pseudo Atom[ 105] Name H_com    Oxidation: +0       Element: H    pdb-name: H    Scat. Types:   1   1 Mass=0.000000000  B-factor:1.000   
                 Charge=-0.936000000         Polarization=0.000000000  [A^3] (considered a charged atom and no polarization)  Interactions: yes
                 Anisotropic factor:    0.000 [-] (Relative), Radius:    0.700 [A], Framework-atom:  no
Pseudo Atom[ 106] Name C_co     Oxidation: +0       Element: C    pdb-name: C    Scat. Types:   7   6 Mass=12.010700000 B-factor:1.000   
                 Charge=-0.242400000         Polarization=0.000000000  [A^3] (considered a charged atom and no polarization)  Interactions: yes
                 Anisotropic factor:    0.000 [-] (Relative), Radius:    0.760 [A], Framework-atom:  no
Pseudo Atom[ 107] Name CO_com   Oxidation: +0       Element: -    pdb-name: O    Scat. Types:   0   8 Mass=0.000000000  B-factor:1.000   
                 Charge=0.516800000          Polarization=0.000000000  [A^3] (considered a charged atom and no polarization)  Interactions: yes
                 Anisotropic factor:    0.000 [-] (Relative), Radius:    0.700 [A], Framework-atom:  no
Pseudo Atom[ 108] Name O_co     Oxidation: +0       Element: O    pdb-name: O    Scat. Types:   9   8 Mass=15.999400000 B-factor:1.000   
                 Charge=-0.274400000         Polarization=0.000000000  [A^3] (considered a charged atom and no polarization)  Interactions: yes
                 Anisotropic factor:    0.000 [-] (Relative), Radius:    0.680 [A], Framework-atom:  no
Pseudo Atom[ 109] Name Ow_T5ew  Oxidation: +0       Element: O    pdb-name: O    Scat. Types:   9   8 Mass=15.999400000 B-factor:1.000   
                 Charge=0.000000000          Polarization=0.000000000  [A^3] (considered a chargeless atom and no polarization)  Interactions: yes
                 Anisotropic factor:    0.000 [-] (Relative), Radius:    0.680 [A], Framework-atom:  no
Pseudo Atom[ 110] Name Hw_T5ew  Oxidation: +0       Element: H    pdb-name: H    Scat. Types:   1   1 Mass=1.007940000  B-factor:1.000   
                 Charge=0.241000000          Polarization=0.000000000  [A^3] (considered a charged atom and no polarization)  Interactions: yes
                 Anisotropic factor:    0.000 [-] (Relative), Radius:    1.000 [A], Framework-atom:  no
Pseudo Atom[ 111] Name Lw_T5ew  Oxidation: +0       Element: -    pdb-name: L    Scat. Types:   0   3 Mass=0.000000000  B-factor:1.000   
                 Charge=-0.241000000         Polarization=0.000000000  [A^3] (considered a charged atom and no polarization)  Interactions: yes
                 Anisotropic factor:    0.000 [-] (Relative), Radius:    1.000 [A], Framework-atom:  no
Pseudo Atom[ 112] Name Ow_T5    Oxidation: +0       Element: O    pdb-name: O    Scat. Types:   9   8 Mass=15.999400000 B-factor:1.000   
                 Charge=0.000000000          Polarization=0.000000000  [A^3] (considered a chargeless atom and no polarization)  Interactions: yes
                 Anisotropic factor:    0.000 [-] (Relative), Radius:    0.680 [A], Framework-atom:  no
Pseudo Atom[ 113] Name Hw_T5    Oxidation: +0       Element: H    pdb-name: H    Scat. Types:   1   1 Mass=1.007940000  B-factor:1.000   
                 Charge=0.241000000          Polarization=0.000000000  [A^3] (considered a charged atom and no polarization)  Interactions: yes
                 Anisotropic factor:    0.000 [-] (Relative), Radius:    1.000 [A], Framework-atom:  no
Pseudo Atom[ 114] Name Lw_T5    Oxidation: +0       Element: -    pdb-name: L    Scat. Types:   0   3 Mass=0.000000000  B-factor:1.000   
                 Charge=-0.241000000         Polarization=0.000000000  [A^3] (considered a charged atom and no polarization)  Interactions: yes
                 Anisotropic factor:    0.000 [-] (Relative), Radius:    1.000 [A], Framework-atom:  no
Pseudo Atom[ 115] Name Ow_T4    Oxidation: +0       Element: O    pdb-name: O    Scat. Types:   9   8 Mass=15.999400000 B-factor:1.000   
                 Charge=0.000000000          Polarization=0.000000000  [A^3] (considered a chargeless atom and no polarization)  Interactions: yes
                 Anisotropic factor:    0.000 [-] (Relative), Radius:    0.680 [A], Framework-atom:  no
Pseudo Atom[ 116] Name Hw_T4    Oxidation: +0       Element: H    pdb-name: H    Scat. Types:   1   1 Mass=1.007940000  B-factor:1.000   
                 Charge=0.520000000          Polarization=0.000000000  [A^3] (considered a charged atom and no polarization)  Interactions: yes
                 Anisotropic factor:    0.000 [-] (Relative), Radius:    1.000 [A], Framework-atom:  no
Pseudo Atom[ 117] Name M_T4     Oxidation: +0       Element: -    pdb-name: L    Scat. Types:   0   3 Mass=0.000000000  B-factor:1.000   
                 Charge=-1.040000000         Polarization=0.000000000  [A^3] (considered a charged atom and no polarization)  Interactions: yes
                 Anisotropic factor:    0.000 [-] (Relative), Radius:    1.000 [A], Framework-atom:  no
Pseudo Atom[ 118] Name Ow_T4ew  Oxidation: +0       Element: O    pdb-name: O    Scat. Types:   9   8 Mass=15.999400000 B-factor:1.000   
                 Charge=0.000000000          Polarization=0.000000000  [A^3] (considered a chargeless atom and no polarization)  Interactions: yes
                 Anisotropic factor:    0.000 [-] (Relative), Radius:    0.680 [A], Framework-atom:  no
Pseudo Atom[ 119] Name Hw_T4ew  Oxidation: +0       Element: H    pdb-name: H    Scat. Types:   1   1 Mass=1.007940000  B-factor:1.000   
                 Charge=0.524200000          Polarization=0.000000000  [A^3] (considered a charged atom and no polarization)  Interactions: yes
                 Anisotropic factor:    0.000 [-] (Relative), Radius:    1.000 [A], Framework-atom:  no
Pseudo Atom[ 120] Name M_T4ew   Oxidation: +0       Element: -    pdb-name: L    Scat. Types:   0   3 Mass=0.000000000  B-factor:1.000   
                 Charge=-1.048440000         Polarization=0.000000000  [A^3] (considered a charged atom and no polarization)  Interactions: yes
                 Anisotropic factor:    0.000 [-] (Relative), Radius:    1.000 [A], Framework-atom:  no
Pseudo Atom[ 121] Name O_so2    Oxidation: +0       Element: O    pdb-name: O    Scat. Types:   9   8 Mass=15.999400000 B-factor:1.000   
                 Charge=-0.295000000         Polarization=0.000000000  [A^3] (considered a charged atom and no polarization)  Interactions: yes
                 Anisotropic factor:    0.000 [-] (Relative), Radius:    0.730 [A], Framework-atom:  no
Pseudo Atom[ 122] Name S_so2    Oxidation: +0       Element: S    pdb-name: S    Scat. Types:  17  14 Mass=32.065000000 B-factor:1.000   
                 Charge=0.590000000          Polarization=0.000000000  [A^3] (considered a charged atom and no polarization)  Interactions: yes
                 Anisotropic factor:    0.000 [-] (Relative), Radius:    1.020 [A], Framework-atom:  no
Pseudo Atom[ 123] Name Ow_spce  Oxidation: +0       Element: O    pdb-name: O    Scat. Types:   9   8 Mass=15.999400000 B-factor:1.000   
                 Charge=-0.847600000         Polarization=0.000000000  [A^3] (considered a charged atom and no polarization)  Interactions: yes
                 Anisotropic factor:    0.000 [-] (Relative), Radius:    1.000 [A], Framework-atom:  no
Pseudo Atom[ 124] Name Hw_spce  Oxidation: +0       Element: H    pdb-name: H    Scat. Types:   1   1 Mass=1.007940000  B-factor:1.000   
                 Charge=0.423800000          Polarization=0.000000000  [A^3] (considered a charged atom and no polarization)  Interactions: yes
                 Anisotropic factor:    0.000 [-] (Relative), Radius:    1.000 [A], Framework-atom:  no
Pseudo Atom[ 125] Name Zn1      Oxidation:          Element: Zn   pdb-name: Zn   Scat. Types:  31  30 Mass=65.408728088 B-factor:0.000   
                 Charge=0.000000000  (-na-)  Polarization=5.750000000  [A^3] (considered a chargeless atom and no polarization)  Interactions: yes
                 Anisotropic factor:    0.000 [-] (Absolute), Radius:    1.200 [A], Framework-atom: yes (charge definition not found)
Pseudo Atom[ 126] Name O2       Oxidation:          Element: O    pdb-name: O    Scat. Types:   9   8 Mass=15.999404927 B-factor:0.000   
                 Charge=0.000000000  (-na-)  Polarization=0.802000000  [A^3] (considered a chargeless atom and no polarization)  Interactions: yes
                 Anisotropic factor:    0.000 [-] (Absolute), Radius:    0.640 [A], Framework-atom: yes (charge definition not found)
Pseudo Atom[ 127] Name C6       Oxidation:          Element: C    pdb-name: C    Scat. Types:   7   6 Mass=12.010735897 B-factor:0.000   
                 Charge=0.000000000  (-na-)  Polarization=1.760000000  [A^3] (considered a chargeless atom and no polarization)  Interactions: yes
                 Anisotropic factor:    0.000 [-] (Absolute), Radius:    0.750 [A], Framework-atom: yes (charge definition not found)
Pseudo Atom[ 128] Name C7       Oxidation:          Element: C    pdb-name: C    Scat. Types:   7   6 Mass=12.010735897 B-factor:0.000   
                 Charge=0.000000000  (-na-)  Polarization=1.760000000  [A^3] (considered a chargeless atom and no polarization)  Interactions: yes
                 Anisotropic factor:    0.000 [-] (Absolute), Radius:    0.750 [A], Framework-atom: yes (charge definition not found)
Pseudo Atom[ 129] Name C5       Oxidation:          Element: C    pdb-name: C    Scat. Types:   7   6 Mass=12.010735897 B-factor:0.000   
                 Charge=0.000000000  (-na-)  Polarization=1.760000000  [A^3] (considered a chargeless atom and no polarization)  Interactions: yes
                 Anisotropic factor:    0.000 [-] (Absolute), Radius:    0.750 [A], Framework-atom: yes (charge definition not found)
Pseudo Atom[ 130] Name C4       Oxidation:          Element: C    pdb-name: C    Scat. Types:   7   6 Mass=12.010735897 B-factor:0.000   
                 Charge=0.000000000  (-na-)  Polarization=1.760000000  [A^3] (considered a chargeless atom and no polarization)  Interactions: yes
                 Anisotropic factor:    0.000 [-] (Absolute), Radius:    0.750 [A], Framework-atom: yes (charge definition not found)
Pseudo Atom[ 131] Name C3       Oxidation:          Element: C    pdb-name: C    Scat. Types:   7   6 Mass=12.010735897 B-factor:0.000   
                 Charge=0.000000000  (-na-)  Polarization=1.760000000  [A^3] (considered a chargeless atom and no polarization)  Interactions: yes
                 Anisotropic factor:    0.000 [-] (Absolute), Radius:    0.750 [A], Framework-atom: yes (charge definition not found)
Pseudo Atom[ 132] Name C2       Oxidation:          Element: C    pdb-name: C    Scat. Types:   7   6 Mass=12.010735897 B-factor:0.000   
                 Charge=0.000000000  (-na-)  Polarization=1.760000000  [A^3] (considered a chargeless atom and no polarization)  Interactions: yes
                 Anisotropic factor:    0.000 [-] (Absolute), Radius:    0.750 [A], Framework-atom: yes (charge definition not found)
Pseudo Atom[ 133] Name C1       Oxidation:          Element: C    pdb-name: C    Scat. Types:   7   6 Mass=12.010735897 B-factor:0.000   
                 Charge=0.000000000  (-na-)  Polarization=1.760000000  [A^3] (considered a chargeless atom and no polarization)  Interactions: yes
                 Anisotropic factor:    0.000 [-] (Absolute), Radius:    0.750 [A], Framework-atom: yes (charge definition not found)
Pseudo Atom[ 134] Name O1       Oxidation:          Element: O    pdb-name: O    Scat. Types:   9   8 Mass=15.999404927 B-factor:0.000   
                 Charge=0.000000000  (-na-)  Polarization=0.802000000  [A^3] (considered a chargeless atom and no polarization)  Interactions: yes
                 Anisotropic factor:    0.000 [-] (Absolute), Radius:    0.640 [A], Framework-atom: yes (charge definition not found)
Pseudo Atom[ 135] Name H3       Oxidation:          Element: H    pdb-name: H    Scat. Types:   1   1 Mass=1.007940754  B-factor:0.000   
                 Charge=0.000000000  (-na-)  Polarization=0.666793000  [A^3] (considered a chargeless atom and no polarization)  Interactions: yes
                 Anisotropic factor:    0.000 [-] (Absolute), Radius:    0.320 [A], Framework-atom: yes (charge definition not found)
Pseudo Atom[ 136] Name H2       Oxidation:          Element: H    pdb-name: H    Scat. Types:   1   1 Mass=1.007940754  B-factor:0.000   
                 Charge=0.000000000  (-na-)  Polarization=0.666793000  [A^3] (considered a chargeless atom and no polarization)  Interactions: yes
                 Anisotropic factor:    0.000 [-] (Absolute), Radius:    0.320 [A], Framework-atom: yes (charge definition not found)
Pseudo Atom[ 137] Name H1       Oxidation:          Element: H    pdb-name: H    Scat. Types:   1   1 Mass=1.007940754  B-factor:0.000   
                 Charge=0.000000000  (-na-)  Polarization=0.666793000  [A^3] (considered a chargeless atom and no polarization)  Interactions: yes
                 Anisotropic factor:    0.000 [-] (Absolute), Radius:    0.320 [A], Framework-atom: yes (charge definition not found)


Forcefield: UFF
===========================================================================
Minimal distance: 1
CutOff VDW : 12.000000 (144.000000)
CutOff VDW switching on: 10.800000 (116.640000)
CutOff charge-charge : 12.000000 (144.000000)
CutOff charge-charge switching on: 7.800000 (60.840000)
CutOff charge-bonddipole : 12.000000 (144.000000)
CutOff charge-bondipole switching on: 8.400000 (70.560000)
CutOff bonddipole-bonddipole : 12.000000 (144.000000)
CutOff bonddipole-bondipole switching on: 9.000000 (81.000000)
Polarization is neglected
All potentials are shifted to zero at the Cutoff

General mixing rule: Lorentz-Berthelot mixing rules are used FIRST for cross terms
0 cross terms are overwritten using the individual mixing rules from the file 'force_field_mixing_rules.def'
and then 0 terms are overwritten using the specific interactions from the file 'force_field.def'

The force field and all the interactions:
      C -       C [LENNARD_JONES] p_0/k_B:  52.83806 [K], p_1: 3.43085 [A], shift/k_B:  -0.11536990 [K], tailcorrection: no
      C -       O [LENNARD_JONES] p_0/k_B:  39.94181 [K], p_1: 3.27450 [A], shift/k_B:  -0.06593119 [K], tailcorrection: no
      C -       H [LENNARD_JONES] p_0/k_B:  34.20413 [K], p_1: 3.00099 [A], shift/k_B:  -0.03346047 [K], tailcorrection: no
      C -       N [LENNARD_JONES] p_0/k_B:  42.83283 [K], p_1: 3.34577 [A], shift/k_B:  -0.08044919 [K], tailcorrection: no
      C -       F [LENNARD_JONES] p_0/k_B:  36.46172 [K], p_1: 3.21392 [A], shift/k_B:  -0.05380910 [K], tailcorrection: no
      C -      Na [LENNARD_JONES] p_0/k_B:  28.24313 [K], p_1: 3.04420 [A], shift/k_B:  -0.03010293 [K], tailcorrection: no
      C -      Mg [LENNARD_JONES] p_0/k_B:  54.32674 [K], p_1: 3.06113 [A], shift/k_B:  -0.05986282 [K], tailcorrection: no
      C -      Al [LENNARD_JONES] p_0/k_B: 115.87717 [K], p_1: 3.71950 [A], shift/k_B:  -0.41066952 [K], tailcorrection: no
      C -      Si [LENNARD_JONES] p_0/k_B: 103.38683 [K], p_1: 3.62863 [A], shift/k_B:  -0.31590880 [K], tailcorrection: no
      C -       P [LENNARD_JONES] p_0/k_B:  90.05381 [K], p_1: 3.56271 [A], shift/k_B:  -0.24652234 [K], tailcorrection: no
      C -       S [LENNARD_JONES] p_0/k_B:  85.35471 [K], p_1: 3.51281 [A], shift/k_B:  -0.21471297 [K], tailcorrection: no
      C -      Cl [LENNARD_JONES] p_0/k_B:  77.69000 [K], p_1: 3.47361 [A], shift/k_B:  -0.18271414 [K], tailcorrection: no
      C -       K [LENNARD_JONES] p_0/k_B:  30.50607 [K], p_1: 3.41348 [A], shift/k_B:  -0.06461195 [K], tailcorrection: no
      C -      Ca [LENNARD_JONES] p_0/k_B:  79.55009 [K], p_1: 3.22951 [A], shift/k_B:  -0.12085480 [K], tailcorrection: no
      C -      Sc [LENNARD_JONES] p_0/k_B:  22.47651 [K], p_1: 3.18318 [A], shift/k_B:  -0.03131247 [K], tailcorrection: no
      C -      Ti [LENNARD_JONES] p_0/k_B:  21.26065 [K], p_1: 3.12972 [A], shift/k_B:  -0.02675774 [K], tailcorrection: no
      C -       V [LENNARD_JONES] p_0/k_B:  20.62586 [K], p_1: 3.11592 [A], shift/k_B:  -0.02527955 [K], tailcorrection: no
      C -      Cr [LENNARD_JONES] p_0/k_B:  19.97090 [K], p_1: 3.18136 [A], shift/k_B:  -0.02772658 [K], tailcorrection: no
      C -      Mn [LENNARD_JONES] p_0/k_B:  18.59190 [K], p_1: 3.03440 [A], shift/k_B:  -0.01943657 [K], tailcorrection: no
      C -      Fe [LENNARD_JONES] p_0/k_B:  18.59190 [K], p_1: 3.01258 [A], shift/k_B:  -0.01861293 [K], tailcorrection: no
      C -      Co [LENNARD_JONES] p_0/k_B:  19.29373 [K], p_1: 2.99476 [A], shift/k_B:  -0.01864024 [K], tailcorrection: no
      C -      Ni [LENNARD_JONES] p_0/k_B:  19.97090 [K], p_1: 2.97783 [A], shift/k_B:  -0.01864954 [K], tailcorrection: no
      C -      Cu [LENNARD_JONES] p_0/k_B:  11.53021 [K], p_1: 3.27227 [A], shift/k_B:  -0.01895510 [K], tailcorrection: no
      C -      Zn [LENNARD_JONES] p_0/k_B:  57.41998 [K], p_1: 2.94620 [A], shift/k_B:  -0.05029372 [K], tailcorrection: no
      C -      Zr [LENNARD_JONES] p_0/k_B:  42.83283 [K], p_1: 3.10701 [A], shift/k_B:  -0.05160292 [K], tailcorrection: no
      C -      Mo [LENNARD_JONES] p_0/k_B:  39.60757 [K], p_1: 3.07493 [A], shift/k_B:  -0.04483770 [K], tailcorrection: no
      C -      Be [LENNARD_JONES] p_0/k_B:  47.54027 [K], p_1: 2.93818 [A], shift/k_B:  -0.04096523 [K], tailcorrection: no
      C -       B [LENNARD_JONES] p_0/k_B:  69.18126 [K], p_1: 3.53419 [A], shift/k_B:  -0.18047643 [K], tailcorrection: no
      C -      Ga [LENNARD_JONES] p_0/k_B: 105.04521 [K], p_1: 3.66783 [A], shift/k_B:  -0.34233372 [K], tailcorrection: no
      C -      Ge [LENNARD_JONES] p_0/k_B: 100.38569 [K], p_1: 3.62195 [A], shift/k_B:  -0.30336854 [K], tailcorrection: no
      C -      As [LENNARD_JONES] p_0/k_B:  90.64241 [K], p_1: 3.59967 [A], shift/k_B:  -0.26397765 [K], tailcorrection: no
      C -      Se [LENNARD_JONES] p_0/k_B:  87.96273 [K], p_1: 3.58854 [A], shift/k_B:  -0.25145904 [K], tailcorrection: no
      C -      Br [LENNARD_JONES] p_0/k_B:  81.69379 [K], p_1: 3.58141 [A], shift/k_B:  -0.23076970 [K], tailcorrection: no
      C -      Rb [LENNARD_JONES] p_0/k_B:  32.61235 [K], p_1: 3.54800 [A], shift/k_B:  -0.08709030 [K], tailcorrection: no
      C -      Sr [LENNARD_JONES] p_0/k_B:  79.04713 [K], p_1: 3.33730 [A], shift/k_B:  -0.14622884 [K], tailcorrection: no
      C -       Y [LENNARD_JONES] p_0/k_B:  43.75407 [K], p_1: 3.20545 [A], shift/k_B:  -0.06355815 [K], tailcorrection: no
      C -      Nb [LENNARD_JONES] p_0/k_B:  39.60757 [K], p_1: 3.12527 [A], shift/k_B:  -0.04942428 [K], tailcorrection: no
      C -      Tc [LENNARD_JONES] p_0/k_B:  35.72505 [K], p_1: 3.05088 [A], shift/k_B:  -0.03858147 [K], tailcorrection: no
      C -      Ru [LENNARD_JONES] p_0/k_B:  38.58746 [K], p_1: 3.03529 [A], shift/k_B:  -0.04041161 [K], tailcorrection: no
      C -      Rh [LENNARD_JONES] p_0/k_B:  37.53964 [K], p_1: 3.02015 [A], shift/k_B:  -0.03815215 [K], tailcorrection: no
      C -      Pd [LENNARD_JONES] p_0/k_B:  35.72505 [K], p_1: 3.00678 [A], shift/k_B:  -0.03535510 [K], tailcorrection: no
      C -      Ag [LENNARD_JONES] p_0/k_B:  30.93879 [K], p_1: 3.11770 [A], shift/k_B:  -0.03804944 [K], tailcorrection: no
      C -      Cd [LENNARD_JONES] p_0/k_B:  77.86095 [K], p_1: 2.98407 [A], shift/k_B:  -0.07362735 [K], tailcorrection: no
      C -      In [LENNARD_JONES] p_0/k_B: 126.20182 [K], p_1: 3.70347 [A], shift/k_B:  -0.43582501 [K], tailcorrection: no
      C -      Sn [LENNARD_JONES] p_0/k_B: 122.78455 [K], p_1: 3.67184 [A], shift/k_B:  -0.40277466 [K], tailcorrection: no
      C -      Sb [LENNARD_JONES] p_0/k_B: 109.26381 [K], p_1: 3.68431 [A], shift/k_B:  -0.36578165 [K], tailcorrection: no
      C -      Te [LENNARD_JONES] p_0/k_B: 102.87118 [K], p_1: 3.70659 [A], shift/k_B:  -0.35705301 [K], tailcorrection: no
      C -      Cs [LENNARD_JONES] p_0/k_B:  34.59063 [K], p_1: 3.72752 [A], shift/k_B:  -0.12418254 [K], tailcorrection: no
      C -      Ba [LENNARD_JONES] p_0/k_B:  98.37911 [K], p_1: 3.36492 [A], shift/k_B:  -0.19121262 [K], tailcorrection: no
      C -      La [LENNARD_JONES] p_0/k_B:  21.26065 [K], p_1: 3.28430 [A], shift/k_B:  -0.03572921 [K], tailcorrection: no
      C -      Ce [LENNARD_JONES] p_0/k_B:  18.59190 [K], p_1: 3.29944 [A], shift/k_B:  -0.03211840 [K], tailcorrection: no
      C -      Pr [LENNARD_JONES] p_0/k_B:  16.30619 [K], p_1: 3.32172 [A], shift/k_B:  -0.02932943 [K], tailcorrection: no
      C -      Nd [LENNARD_JONES] p_0/k_B:  16.30619 [K], p_1: 3.30790 [A], shift/k_B:  -0.02860569 [K], tailcorrection: no
      C -      Pm [LENNARD_JONES] p_0/k_B:  15.46941 [K], p_1: 3.29543 [A], shift/k_B:  -0.02652994 [K], tailcorrection: no
      C -      Sm [LENNARD_JONES] p_0/k_B:  14.58470 [K], p_1: 3.28341 [A], shift/k_B:  -0.02447002 [K], tailcorrection: no
      C -      Eu [LENNARD_JONES] p_0/k_B:  14.58470 [K], p_1: 3.27138 [A], shift/k_B:  -0.02393743 [K], tailcorrection: no
      C -      Gd [LENNARD_JONES] p_0/k_B:  15.46941 [K], p_1: 3.21570 [A], shift/k_B:  -0.02290543 [K], tailcorrection: no
      C -      Tb [LENNARD_JONES] p_0/k_B:  13.64273 [K], p_1: 3.25267 [A], shift/k_B:  -0.02163424 [K], tailcorrection: no
      C -      Dy [LENNARD_JONES] p_0/k_B:  13.64273 [K], p_1: 3.24242 [A], shift/k_B:  -0.02122875 [K], tailcorrection: no
      C -      Ho [LENNARD_JONES] p_0/k_B:  13.64273 [K], p_1: 3.23396 [A], shift/k_B:  -0.02089851 [K], tailcorrection: no
      C -      Er [LENNARD_JONES] p_0/k_B:  13.64273 [K], p_1: 3.22595 [A], shift/k_B:  -0.02058978 [K], tailcorrection: no
      C -      Tm [LENNARD_JONES] p_0/k_B:  12.63072 [K], p_1: 3.21837 [A], shift/k_B:  -0.01879553 [K], tailcorrection: no
      C -      Yb [LENNARD_JONES] p_0/k_B:  77.86093 [K], p_1: 3.20991 [A], shift/k_B:  -0.11404865 [K], tailcorrection: no
      C -      Lu [LENNARD_JONES] p_0/k_B:  33.01749 [K], p_1: 3.33686 [A], shift/k_B:  -0.06103005 [K], tailcorrection: no
      C -      Hf [LENNARD_JONES] p_0/k_B:  43.75407 [K], p_1: 3.11458 [A], shift/k_B:  -0.05348785 [K], tailcorrection: no
      C -      Ta [LENNARD_JONES] p_0/k_B:  46.40820 [K], p_1: 3.12750 [A], shift/k_B:  -0.05815874 [K], tailcorrection: no
      C -       W [LENNARD_JONES] p_0/k_B:  42.20750 [K], p_1: 3.08251 [A], shift/k_B:  -0.04849135 [K], tailcorrection: no
      C -      Re [LENNARD_JONES] p_0/k_B:  41.89133 [K], p_1: 3.03128 [A], shift/k_B:  -0.04352514 [K], tailcorrection: no
      C -      Os [LENNARD_JONES] p_0/k_B:  31.36556 [K], p_1: 3.10522 [A], shift/k_B:  -0.03765768 [K], tailcorrection: no
      C -      Ir [LENNARD_JONES] p_0/k_B:  44.05687 [K], p_1: 2.98050 [A], shift/k_B:  -0.04136366 [K], tailcorrection: no
      C -      Pt [LENNARD_JONES] p_0/k_B:  46.12084 [K], p_1: 2.94219 [A], shift/k_B:  -0.04006859 [K], tailcorrection: no
      C -      Au [LENNARD_JONES] p_0/k_B:  32.20212 [K], p_1: 3.18229 [A], shift/k_B:  -0.04478622 [K], tailcorrection: no
      C -      Hg [LENNARD_JONES] p_0/k_B: 101.17718 [K], p_1: 2.92036 [A], shift/k_B:  -0.08405967 [K], tailcorrection: no
      C -      Tl [LENNARD_JONES] p_0/k_B: 134.46419 [K], p_1: 3.65179 [A], shift/k_B:  -0.42684720 [K], tailcorrection: no
      C -      Pb [LENNARD_JONES] p_0/k_B: 132.77275 [K], p_1: 3.62952 [A], shift/k_B:  -0.40629737 [K], tailcorrection: no
      C -      Bi [LENNARD_JONES] p_0/k_B: 117.35918 [K], p_1: 3.66204 [A], shift/k_B:  -0.37885862 [K], tailcorrection: no
      C -      Po [LENNARD_JONES] p_0/k_B:  92.95952 [K], p_1: 3.81304 [A], shift/k_B:  -0.38234087 [K], tailcorrection: no
      C -      At [LENNARD_JONES] p_0/k_B:  86.89832 [K], p_1: 3.83131 [A], shift/k_B:  -0.36779631 [K], tailcorrection: no
      C -      Rn [LENNARD_JONES] p_0/k_B:  81.20411 [K], p_1: 3.83799 [A], shift/k_B:  -0.34730295 [K], tailcorrection: no
      C -      Ra [LENNARD_JONES] p_0/k_B: 103.64369 [K], p_1: 3.35334 [A], shift/k_B:  -0.19732135 [K], tailcorrection: no
      C -      Ac [LENNARD_JONES] p_0/k_B:  29.62165 [K], p_1: 3.26470 [A], shift/k_B:  -0.04802477 [K], tailcorrection: no
      C -      Th [LENNARD_JONES] p_0/k_B:  26.29292 [K], p_1: 3.22817 [A], shift/k_B:  -0.03984604 [K], tailcorrection: no
      C -      Pa [LENNARD_JONES] p_0/k_B:  24.18597 [K], p_1: 3.24064 [A], shift/k_B:  -0.03751080 [K], tailcorrection: no
      C -       U [LENNARD_JONES] p_0/k_B:  24.18597 [K], p_1: 3.22772 [A], shift/k_B:  -0.03662273 [K], tailcorrection: no
      C -      Np [LENNARD_JONES] p_0/k_B:  22.47651 [K], p_1: 3.24064 [A], shift/k_B:  -0.03485955 [K], tailcorrection: no
      C -      Pu [LENNARD_JONES] p_0/k_B:  20.62586 [K], p_1: 3.24064 [A], shift/k_B:  -0.03198931 [K], tailcorrection: no
      C -      Am [LENNARD_JONES] p_0/k_B:  19.29373 [K], p_1: 3.22149 [A], shift/k_B:  -0.02887797 [K], tailcorrection: no
      C -      Cm [LENNARD_JONES] p_0/k_B:  18.59190 [K], p_1: 3.19699 [A], shift/k_B:  -0.02658206 [K], tailcorrection: no
      C -      Bk [LENNARD_JONES] p_0/k_B:  18.59190 [K], p_1: 3.20278 [A], shift/k_B:  -0.02687212 [K], tailcorrection: no
      C -      Cf [LENNARD_JONES] p_0/k_B:  18.59190 [K], p_1: 3.19120 [A], shift/k_B:  -0.02629461 [K], tailcorrection: no
      C -      Es [LENNARD_JONES] p_0/k_B:  17.86252 [K], p_1: 3.18496 [A], shift/k_B:  -0.02496820 [K], tailcorrection: no
      C -      Fm [LENNARD_JONES] p_0/k_B:  17.86252 [K], p_1: 3.17917 [A], shift/k_B:  -0.02469719 [K], tailcorrection: no
      C -      Md [LENNARD_JONES] p_0/k_B:  17.10207 [K], p_1: 3.17382 [A], shift/k_B:  -0.02340833 [K], tailcorrection: no
      C -      No [LENNARD_JONES] p_0/k_B:  17.10207 [K], p_1: 3.16224 [A], shift/k_B:  -0.02290071 [K], tailcorrection: no
      C -      He [LENNARD_JONES] p_0/k_B:  23.99864 [K], p_1: 3.03543 [A], shift/k_B:  -0.02513984 [K], tailcorrection: no
      C -   O_co2 [LENNARD_JONES] p_0/k_B:  64.60810 [K], p_1: 3.24043 [A], shift/k_B:  -0.10016198 [K], tailcorrection: no
      C -   C_co2 [LENNARD_JONES] p_0/k_B:  37.77072 [K], p_1: 3.11543 [A], shift/k_B:  -0.04624860 [K], tailcorrection: no
      C -    N_n2 [LENNARD_JONES] p_0/k_B:  44.98435 [K], p_1: 3.36843 [A], shift/k_B:  -0.08797976 [K], tailcorrection: no
      C -   N_com [ZERO_POTENTIAL]
      C -    O_o2 [LENNARD_JONES] p_0/k_B:  52.93045 [K], p_1: 3.23792 [A], shift/k_B:  -0.08167914 [K], tailcorrection: no
      C -   O_com [ZERO_POTENTIAL]
      C -      Ar [LENNARD_JONES] p_0/k_B:  80.96677 [K], p_1: 3.40543 [A], shift/k_B:  -0.16907537 [K], tailcorrection: no
      C -     CH4 [LENNARD_JONES] p_0/k_B:  88.43095 [K], p_1: 3.58042 [A], shift/k_B:  -0.24938927 [K], tailcorrection: no
      C -    H_h2 [ZERO_POTENTIAL]
      C -   H_com [FEYNMAN_HIBBS_LENNARD_JONES] p_0/k_B: 44.03586 [K], p_1:  3.19442 [A], p_2:  2.01600 [u] (h^2/(24p_2k_BT)= 1.00258), shift/k_B: -0.06270 [K], tailcorrection: no
      C -    C_co [LENNARD_JONES] p_0/k_B:  29.20375 [K], p_1: 3.53343 [A], shift/k_B:  -0.07608574 [K], tailcorrection: no
      C -  CO_com [ZERO_POTENTIAL]
      C -    O_co [LENNARD_JONES] p_0/k_B:  71.96436 [K], p_1: 3.20493 [A], shift/k_B:  -0.10443344 [K], tailcorrection: no
      C - Ow_T5ew [LENNARD_JONES] p_0/k_B:  68.81885 [K], p_1: 3.26392 [A], shift/k_B:  -0.11141536 [K], tailcorrection: no
      C - Hw_T5ew [ZERO_POTENTIAL]
      C - Lw_T5ew [ZERO_POTENTIAL]
      C -   Ow_T5 [LENNARD_JONES] p_0/k_B:  65.24693 [K], p_1: 3.27543 [A], shift/k_B:  -0.10788447 [K], tailcorrection: no
      C -   Hw_T5 [ZERO_POTENTIAL]
      C -   Lw_T5 [ZERO_POTENTIAL]
      C -   Ow_T4 [LENNARD_JONES] p_0/k_B:  64.19748 [K], p_1: 3.29223 [A], shift/k_B:  -0.10945670 [K], tailcorrection: no
      C -   Hw_T4 [ZERO_POTENTIAL]
      C -    M_T4 [ZERO_POTENTIAL]
      C - Ow_T4ew [LENNARD_JONES] p_0/k_B:  65.78284 [K], p_1: 3.29760 [A], shift/k_B:  -0.11326245 [K], tailcorrection: no
      C - Hw_T4ew [ZERO_POTENTIAL]
      C -  M_T4ew [ZERO_POTENTIAL]
      C -   O_so2 [LENNARD_JONES] p_0/k_B:  64.60810 [K], p_1: 3.24043 [A], shift/k_B:  -0.10016198 [K], tailcorrection: no
      C -   S_so2 [LENNARD_JONES] p_0/k_B:  62.44557 [K], p_1: 3.41043 [A], shift/k_B:  -0.13155163 [K], tailcorrection: no
      C - Ow_spce [LENNARD_JONES] p_0/k_B:  64.25959 [K], p_1: 3.29842 [A], shift/k_B:  -0.11080587 [K], tailcorrection: no
      C - Hw_spce [ZERO_POTENTIAL]
      C -     Zn1 [LENNARD_JONES] p_0/k_B:  57.41998 [K], p_1: 2.94620 [A], shift/k_B:  -0.05029372 [K], tailcorrection: no
      C -      O2 [LENNARD_JONES] p_0/k_B:  39.94181 [K], p_1: 3.27450 [A], shift/k_B:  -0.06593119 [K], tailcorrection: no
      C -      C6 [LENNARD_JONES] p_0/k_B:  52.83806 [K], p_1: 3.43085 [A], shift/k_B:  -0.11536990 [K], tailcorrection: no
      C -      C7 [LENNARD_JONES] p_0/k_B:  52.83806 [K], p_1: 3.43085 [A], shift/k_B:  -0.11536990 [K], tailcorrection: no
      C -      C5 [LENNARD_JONES] p_0/k_B:  52.83806 [K], p_1: 3.43085 [A], shift/k_B:  -0.11536990 [K], tailcorrection: no
      C -      C4 [LENNARD_JONES] p_0/k_B:  52.83806 [K], p_1: 3.43085 [A], shift/k_B:  -0.11536990 [K], tailcorrection: no
      C -      C3 [LENNARD_JONES] p_0/k_B:  52.83806 [K], p_1: 3.43085 [A], shift/k_B:  -0.11536990 [K], tailcorrection: no
      C -      C2 [LENNARD_JONES] p_0/k_B:  52.83806 [K], p_1: 3.43085 [A], shift/k_B:  -0.11536990 [K], tailcorrection: no
      C -      C1 [LENNARD_JONES] p_0/k_B:  52.83806 [K], p_1: 3.43085 [A], shift/k_B:  -0.11536990 [K], tailcorrection: no
      C -      O1 [LENNARD_JONES] p_0/k_B:  39.94181 [K], p_1: 3.27450 [A], shift/k_B:  -0.06593119 [K], tailcorrection: no
      C -      H3 [LENNARD_JONES] p_0/k_B:  34.20413 [K], p_1: 3.00099 [A], shift/k_B:  -0.03346047 [K], tailcorrection: no
      C -      H2 [LENNARD_JONES] p_0/k_B:  34.20413 [K], p_1: 3.00099 [A], shift/k_B:  -0.03346047 [K], tailcorrection: no
[...]

Tail-correction energy:
=======================
	Block[ 0]            0.00000 [K]
	Block[ 1]            0.00000 [K]
	Block[ 2]            0.00000 [K]
	Block[ 3]            0.00000 [K]
	Block[ 4]            0.00000 [K]
	------------------------------------------------------------------------------
	Average              0.00000 [K] +/-            0.00000 [K]

Distance-constraints energy:
=======================
	Block[ 0]            0.00000 [K]
	Block[ 1]            0.00000 [K]
	Block[ 2]            0.00000 [K]
	Block[ 3]            0.00000 [K]
	Block[ 4]            0.00000 [K]
	------------------------------------------------------------------------------
	Average              0.00000 [K] +/-            0.00000 [K]

Angle-constraints energy:
=======================
	Block[ 0]            0.00000 [K]
	Block[ 1]            0.00000 [K]
	Block[ 2]            0.00000 [K]
	Block[ 3]            0.00000 [K]
	Block[ 4]            0.00000 [K]
	------------------------------------------------------------------------------
	Average              0.00000 [K] +/-            0.00000 [K]

Dihedral-constraints energy:
=======================
	Block[ 0]            0.00000 [K]
	Block[ 1]            0.00000 [K]
	Block[ 2]            0.00000 [K]
	Block[ 3]            0.00000 [K]
	Block[ 4]            0.00000 [K]
	------------------------------------------------------------------------------
	Average              0.00000 [K] +/-            0.00000 [K]

Inversion-bend constraints energy:
=======================
	Block[ 0]            0.00000 [K]
	Block[ 1]            0.00000 [K]
	Block[ 2]            0.00000 [K]
	Block[ 3]            0.00000 [K]
	Block[ 4]            0.00000 [K]
	------------------------------------------------------------------------------
	Average              0.00000 [K] +/-            0.00000 [K]

Out-of-plane-distance constraints energy:
=======================
	Block[ 0]            0.00000 [K]
	Block[ 1]            0.00000 [K]
	Block[ 2]            0.00000 [K]
	Block[ 3]            0.00000 [K]
	Block[ 4]            0.00000 [K]
	------------------------------------------------------------------------------
	Average              0.00000 [K] +/-            0.00000 [K]

Exclusion-constraints energy:
=======================
	Block[ 0]            0.00000 [K]
	Block[ 1]            0.00000 [K]
	Block[ 2]            0.00000 [K]
	Block[ 3]            0.00000 [K]
	Block[ 4]            0.00000 [K]
	------------------------------------------------------------------------------
	Average              0.00000 [K] +/-            0.00000 [K]

Total energy:
=============
	Block[ 0]           -0.09801 [K]
	Block[ 1]           -0.28016 [K]
	Block[ 2]           -0.17404 [K]
	Block[ 3]           -0.00000 [K]
	Block[ 4]           -0.16617 [K]
	------------------------------------------------------------------------------
	Average             -0.14368 [K] +/-            0.12839 [K]

Number of molecules:
====================

Component 0 [CO2]
-------------------------------------------------------------
	Block[ 0] 0.00010            [-]
	Block[ 1] 0.00020            [-]
	Block[ 2] 0.00010            [-]
	Block[ 3] 0.00000            [-]
	Block[ 4] 0.00010            [-]
	------------------------------------------------------------------------------
	Average loading absolute                              0.0001000000 +/-       0.0000877848 [-]
	Average loading absolute [molecules/unit cell]        0.0000250000 +/-       0.0000219462 [-]
	Average loading absolute [mol/kg framework]                  0.0000027211 +/-       0.0000023887 [-]
	Average loading absolute [milligram/gram framework]          0.0001197529 +/-       0.0001051249 [-]
	Average loading absolute [cm^3 (STP)/gr framework]           0.0000609900 +/-       0.0000535400 [-]
	Average loading absolute [cm^3 (STP)/cm^3 framework]         0.0000260305 +/-       0.0000228508 [-]

	Block[ 0] 0.00010            [-]
	Block[ 1] 0.00020            [-]
	Block[ 2] 0.00010            [-]
	Block[ 3] 0.00000            [-]
	Block[ 4] 0.00010            [-]
	------------------------------------------------------------------------------
	Average loading excess                              0.0001000000 +/-       0.0000877848 [-]
	Average loading excess [molecules/unit cell]        0.0000250000 +/-       0.0000219462 [-]
	Average loading excess [mol/kg framework]                    0.0000027211 +/-       0.0000023887 [-]
	Average loading excess [milligram/gram framework]            0.0001197529 +/-       0.0001051249 [-]
	Average loading excess [cm^3 (STP)/gr framework]             0.0000609900 +/-       0.0000535400 [-]
	Average loading excess [cm^3 (STP)/cm^3 framework]           0.0000260305 +/-       0.0000228508 [-]

Component 1 [N2]
-------------------------------------------------------------
	Block[ 0] 0.00000            [-]
	Block[ 1] 0.00005            [-]
	Block[ 2] 0.00010            [-]
	Block[ 3] 0.00000            [-]
	Block[ 4] 0.00000            [-]
	------------------------------------------------------------------------------
	Average loading absolute                              0.0000300000 +/-       0.0000555200 [-]
	Average loading absolute [molecules/unit cell]        0.0000075000 +/-       0.0000138800 [-]
	Average loading absolute [mol/kg framework]                  0.0000008163 +/-       0.0000015107 [-]
	Average loading absolute [milligram/gram framework]          0.0000228680 +/-       0.0000423210 [-]
	Average loading absolute [cm^3 (STP)/gr framework]           0.0000182970 +/-       0.0000338617 [-]
	Average loading absolute [cm^3 (STP)/cm^3 framework]         0.0000078091 +/-       0.0000144521 [-]

	Block[ 0] 0.00000            [-]
	Block[ 1] 0.00005            [-]
	Block[ 2] 0.00010            [-]
	Block[ 3] 0.00000            [-]
	Block[ 4] 0.00000            [-]
	------------------------------------------------------------------------------
	Average loading excess                              0.0000300000 +/-       0.0000555200 [-]
	Average loading excess [molecules/unit cell]        0.0000075000 +/-       0.0000138800 [-]
	Average loading excess [mol/kg framework]                    0.0000008163 +/-       0.0000015107 [-]
	Average loading excess [milligram/gram framework]            0.0000228680 +/-       0.0000423210 [-]
	Average loading excess [cm^3 (STP)/gr framework]             0.0000182970 +/-       0.0000338617 [-]
	Average loading excess [cm^3 (STP)/cm^3 framework]           0.0000078091 +/-       0.0000144521 [-]

Component 2 [O2]
-------------------------------------------------------------
	Block[ 0] 0.00000            [-]
	Block[ 1] 0.00000            [-]
	Block[ 2] 0.00000            [-]
	Block[ 3] 0.00000            [-]
	Block[ 4] 0.00000            [-]
	------------------------------------------------------------------------------
	Average loading absolute                              0.0000000000 +/-       0.0000000000 [-]
	Average loading absolute [molecules/unit cell]        0.0000000000 +/-       0.0000000000 [-]
	Average loading absolute [mol/kg framework]                  0.0000000000 +/-       0.0000000000 [-]
	Average loading absolute [milligram/gram framework]          0.0000000000 +/-       0.0000000000 [-]
	Average loading absolute [cm^3 (STP)/gr framework]           0.0000000000 +/-       0.0000000000 [-]
	Average loading absolute [cm^3 (STP)/cm^3 framework]         0.0000000000 +/-       0.0000000000 [-]

	Block[ 0] 0.00000            [-]
	Block[ 1] 0.00000            [-]
	Block[ 2] 0.00000            [-]
	Block[ 3] 0.00000            [-]
	Block[ 4] 0.00000            [-]
	------------------------------------------------------------------------------
	Average loading excess                              0.0000000000 +/-       0.0000000000 [-]
	Average loading excess [molecules/unit cell]        0.0000000000 +/-       0.0000000000 [-]
	Average loading excess [mol/kg framework]                    0.0000000000 +/-       0.0000000000 [-]
	Average loading excess [milligram/gram framework]            0.0000000000 +/-       0.0000000000 [-]
	Average loading excess [cm^3 (STP)/gr framework]             0.0000000000 +/-       0.0000000000 [-]
	Average loading excess [cm^3 (STP)/cm^3 framework]           0.0000000000 +/-       0.0000000000 [-]

Component 3 [SPC-E]
-------------------------------------------------------------
	Block[ 0] 0.00000            [-]
	Block[ 1] 0.00000            [-]
	Block[ 2] 0.00000            [-]
	Block[ 3] 0.00000            [-]
	Block[ 4] 0.00000            [-]
	------------------------------------------------------------------------------
	Average loading absolute                              0.0000000000 +/-       0.0000000000 [-]
	Average loading absolute [molecules/unit cell]        0.0000000000 +/-       0.0000000000 [-]
	Average loading absolute [mol/kg framework]                  0.0000000000 +/-       0.0000000000 [-]
	Average loading absolute [milligram/gram framework]          0.0000000000 +/-       0.0000000000 [-]
	Average loading absolute [cm^3 (STP)/gr framework]           0.0000000000 +/-       0.0000000000 [-]
	Average loading absolute [cm^3 (STP)/cm^3 framework]         0.0000000000 +/-       0.0000000000 [-]

	Block[ 0] 0.00000            [-]
	Block[ 1] 0.00000            [-]
	Block[ 2] 0.00000            [-]
	Block[ 3] 0.00000            [-]
	Block[ 4] 0.00000            [-]
	------------------------------------------------------------------------------
	Average loading excess                              0.0000000000 +/-       0.0000000000 [-]
	Average loading excess [molecules/unit cell]        0.0000000000 +/-       0.0000000000 [-]
	Average loading excess [mol/kg framework]                    0.0000000000 +/-       0.0000000000 [-]
	Average loading excess [milligram/gram framework]            0.0000000000 +/-       0.0000000000 [-]
	Average loading excess [cm^3 (STP)/gr framework]             0.0000000000 +/-       0.0000000000 [-]
	Average loading excess [cm^3 (STP)/cm^3 framework]           0.0000000000 +/-       0.0000000000 [-]


Average Widom Rosenbluth factor:
================================
	Block[ 0] 0 [-]
	Block[ 1] 0 [-]
	Block[ 2] 0 [-]
	Block[ 3] 0 [-]
	Block[ 4] 0 [-]
	------------------------------------------------------------------------------
	[CO2] Average Widom Rosenbluth-weight:   0 +/- 0.000000 [-]
	Block[ 0] 0 [-]
	Block[ 1] 0 [-]
	Block[ 2] 0 [-]
	Block[ 3] 0 [-]
	Block[ 4] 0 [-]
	------------------------------------------------------------------------------
	[N2] Average Widom Rosenbluth-weight:   0 +/- 0.000000 [-]
	Block[ 0] 0 [-]
	Block[ 1] 0 [-]
	Block[ 2] 0 [-]
	Block[ 3] 0 [-]
	Block[ 4] 0 [-]
	------------------------------------------------------------------------------
	[O2] Average Widom Rosenbluth-weight:   0 +/- 0.000000 [-]
	Block[ 0] 0 [-]
	Block[ 1] 0 [-]
	Block[ 2] 0 [-]
	Block[ 3] 0 [-]
	Block[ 4] 0 [-]
	------------------------------------------------------------------------------
	[SPC-E] Average Widom Rosenbluth-weight:   0 +/- 0.000000 [-]

Average Widom chemical potential:
=================================
	Block[ 0] 0 [-]
	Block[ 1] 0 [-]
	Block[ 2] 0 [-]
	Block[ 3] 0 [-]
	Block[ 4] 0 [-]
	------------------------------------------------------------------------------
	[CO2] Average chemical potential:   0 +/- 0.000000 [K]
	Block[ 0] 0 [-]
	Block[ 1] 0 [-]
	Block[ 2] 0 [-]
	Block[ 3] 0 [-]
	Block[ 4] 0 [-]
	------------------------------------------------------------------------------
	[N2] Average chemical potential:   0 +/- 0.000000 [K]
	Block[ 0] 0 [-]
	Block[ 1] 0 [-]
	Block[ 2] 0 [-]
	Block[ 3] 0 [-]
	Block[ 4] 0 [-]
	------------------------------------------------------------------------------
	[O2] Average chemical potential:   0 +/- 0.000000 [K]
	Block[ 0] 0 [-]
	Block[ 1] 0 [-]
	Block[ 2] 0 [-]
	Block[ 3] 0 [-]
	Block[ 4] 0 [-]
	------------------------------------------------------------------------------
	[SPC-E] Average chemical potential:   0 +/- 0.000000 [K]

Average Widom Ideal-gas contribution:
=====================================
	Block[ 0] 0 [-]
	Block[ 1] 0 [-]
	Block[ 2] 0 [-]
	Block[ 3] 0 [-]
	Block[ 4] 0 [-]
	------------------------------------------------------------------------------
	[CO2] Average Widom Ideal-gas chemical potential:   0 +/- 0.000000 [-]
	Block[ 0] 0 [-]
	Block[ 1] 0 [-]
	Block[ 2] 0 [-]
	Block[ 3] 0 [-]
	Block[ 4] 0 [-]
	------------------------------------------------------------------------------
	[N2] Average Widom Ideal-gas chemical potential:   0 +/- 0.000000 [-]
	Block[ 0] 0 [-]
	Block[ 1] 0 [-]
	Block[ 2] 0 [-]
	Block[ 3] 0 [-]
	Block[ 4] 0 [-]
	------------------------------------------------------------------------------
	[O2] Average Widom Ideal-gas chemical potential:   0 +/- 0.000000 [-]
	Block[ 0] 0 [-]
	Block[ 1] 0 [-]
	Block[ 2] 0 [-]
	Block[ 3] 0 [-]
	Block[ 4] 0 [-]
	------------------------------------------------------------------------------
	[SPC-E] Average Widom Ideal-gas chemical potential:   0 +/- 0.000000 [-]

Average Widom excess contribution:
==================================
	Block[ 0] 0 [-]
	Block[ 1] 0 [-]
	Block[ 2] 0 [-]
	Block[ 3] 0 [-]
	Block[ 4] 0 [-]
	------------------------------------------------------------------------------
	[CO2] Average Widom excess chemical potential:   0 +/- 0.000000 [-]
	Block[ 0] 0 [-]
	Block[ 1] 0 [-]
	Block[ 2] 0 [-]
	Block[ 3] 0 [-]
	Block[ 4] 0 [-]
	------------------------------------------------------------------------------
	[N2] Average Widom excess chemical potential:   0 +/- 0.000000 [-]
	Block[ 0] 0 [-]
	Block[ 1] 0 [-]
	Block[ 2] 0 [-]
	Block[ 3] 0 [-]
	Block[ 4] 0 [-]
	------------------------------------------------------------------------------
	[O2] Average Widom excess chemical potential:   0 +/- 0.000000 [-]
	Block[ 0] 0 [-]
	Block[ 1] 0 [-]
	Block[ 2] 0 [-]
	Block[ 3] 0 [-]
	Block[ 4] 0 [-]
	------------------------------------------------------------------------------
	[SPC-E] Average Widom excess chemical potential:   0 +/- 0.000000 [-]

Average Gibbs Widom Rosenbluth factor:
======================================
	Block[ 0] 0 [-]
	Block[ 1] 0 [-]
	Block[ 2] 0 [-]
	Block[ 3] 0 [-]
	Block[ 4] 0 [-]
	------------------------------------------------------------------------------
	[CO2] Average Gibbs Widom Rosenbluth-weight:   0 +/- 0.000000 [-]
	Block[ 0] 0 [-]
	Block[ 1] 0 [-]
	Block[ 2] 0 [-]
	Block[ 3] 0 [-]
	Block[ 4] 0 [-]
	------------------------------------------------------------------------------
	[N2] Average Gibbs Widom Rosenbluth-weight:   0 +/- 0.000000 [-]
	Block[ 0] 0 [-]
	Block[ 1] 0 [-]
	Block[ 2] 0 [-]
	Block[ 3] 0 [-]
	Block[ 4] 0 [-]
	------------------------------------------------------------------------------
	[O2] Average Gibbs Widom Rosenbluth-weight:   0 +/- 0.000000 [-]
	Block[ 0] 0 [-]
	Block[ 1] 0 [-]
	Block[ 2] 0 [-]
	Block[ 3] 0 [-]
	Block[ 4] 0 [-]
	------------------------------------------------------------------------------
	[SPC-E] Average Gibbs Widom Rosenbluth-weight:   0 +/- 0.000000 [-]

Average Gibbs Widom chemical potential:
=======================================
	Block[ 0] 0 [-]
	Block[ 1] 0 [-]
	Block[ 2] 0 [-]
	Block[ 3] 0 [-]
	Block[ 4] 0 [-]
	------------------------------------------------------------------------------
	[CO2] Average Gibbs chemical potential:   0 +/- 0.000000 [K]
	Block[ 0] 0 [-]
	Block[ 1] 0 [-]
	Block[ 2] 0 [-]
	Block[ 3] 0 [-]
	Block[ 4] 0 [-]
	------------------------------------------------------------------------------
	[N2] Average Gibbs chemical potential:   0 +/- 0.000000 [K]
	Block[ 0] 0 [-]
	Block[ 1] 0 [-]
	Block[ 2] 0 [-]
	Block[ 3] 0 [-]
	Block[ 4] 0 [-]
	------------------------------------------------------------------------------
	[O2] Average Gibbs chemical potential:   0 +/- 0.000000 [K]
	Block[ 0] 0 [-]
	Block[ 1] 0 [-]
	Block[ 2] 0 [-]
	Block[ 3] 0 [-]
	Block[ 4] 0 [-]
	------------------------------------------------------------------------------
	[SPC-E] Average Gibbs chemical potential:   0 +/- 0.000000 [K]

Average osmostat calibration for alchemical transformation:
=======================================
	Block[ 0] 0 [-]
	Block[ 1] 0 [-]
	Block[ 2] 0 [-]
	Block[ 3] 0 [-]
	Block[ 4] 0 [-]
	------------------------------------------------------------------------------
	Average osmostat calibration for alchemical transformation:   0 +/- 0.000000 [K]
	Average osmostat calibration for alchemical transformation:   0 +/- 0.000000 [kJ/mol]

Average Gibbs Widom Ideal-gas contribution:
===========================================
	Block[ 0] 0 [-]
	Block[ 1] 0 [-]
	Block[ 2] 0 [-]
	Block[ 3] 0 [-]
	Block[ 4] 0 [-]
	------------------------------------------------------------------------------
	[CO2] Average Gibbs Ideal-gas chemical potential:   0 +/- 0.000000 [-]
	Block[ 0] 0 [-]
	Block[ 1] 0 [-]
	Block[ 2] 0 [-]
	Block[ 3] 0 [-]
	Block[ 4] 0 [-]
	------------------------------------------------------------------------------
	[N2] Average Gibbs Ideal-gas chemical potential:   0 +/- 0.000000 [-]
	Block[ 0] 0 [-]
	Block[ 1] 0 [-]
	Block[ 2] 0 [-]
	Block[ 3] 0 [-]
	Block[ 4] 0 [-]
	------------------------------------------------------------------------------
	[O2] Average Gibbs Ideal-gas chemical potential:   0 +/- 0.000000 [-]
	Block[ 0] 0 [-]
	Block[ 1] 0 [-]
	Block[ 2] 0 [-]
	Block[ 3] 0 [-]
	Block[ 4] 0 [-]
	------------------------------------------------------------------------------
	[SPC-E] Average Gibbs Ideal-gas chemical potential:   0 +/- 0.000000 [-]

Average Gibbs Widom excess contribution:
===========================================
	Block[ 0] 0 [-]
	Block[ 1] 0 [-]
	Block[ 2] 0 [-]
	Block[ 3] 0 [-]
	Block[ 4] 0 [-]
	------------------------------------------------------------------------------
	[CO2] Average Gibbs excess chemical potential:   0 +/- 0.000000 [-]
	Block[ 0] 0 [-]
	Block[ 1] 0 [-]
	Block[ 2] 0 [-]
	Block[ 3] 0 [-]
	Block[ 4] 0 [-]
	------------------------------------------------------------------------------
	[N2] Average Gibbs excess chemical potential:   0 +/- 0.000000 [-]
	Block[ 0] 0 [-]
	Block[ 1] 0 [-]
	Block[ 2] 0 [-]
	Block[ 3] 0 [-]
	Block[ 4] 0 [-]
	------------------------------------------------------------------------------
	[O2] Average Gibbs excess chemical potential:   0 +/- 0.000000 [-]
	Block[ 0] 0 [-]
	Block[ 1] 0 [-]
	Block[ 2] 0 [-]
	Block[ 3] 0 [-]
	Block[ 4] 0 [-]
	------------------------------------------------------------------------------
	[SPC-E] Average Gibbs excess chemical potential:   0 +/- 0.000000 [-]

Average Henry coefficient:
==========================
	Block[ 0] 0 [mol/kg/Pa]
	Block[ 1] 0 [mol/kg/Pa]
	Block[ 2] 0 [mol/kg/Pa]
	Block[ 3] 0 [mol/kg/Pa]
	Block[ 4] 0 [mol/kg/Pa]
	------------------------------------------------------------------------------
	[CO2] Average Henry coefficient:  0 +/- 0 [mol/kg/Pa]
	Block[ 0] 0 [mol/kg/Pa]
	Block[ 1] 0 [mol/kg/Pa]
	Block[ 2] 0 [mol/kg/Pa]
	Block[ 3] 0 [mol/kg/Pa]
	Block[ 4] 0 [mol/kg/Pa]
	------------------------------------------------------------------------------
	[N2] Average Henry coefficient:  0 +/- 0 [mol/kg/Pa]
	Block[ 0] 0 [mol/kg/Pa]
	Block[ 1] 0 [mol/kg/Pa]
	Block[ 2] 0 [mol/kg/Pa]
	Block[ 3] 0 [mol/kg/Pa]
	Block[ 4] 0 [mol/kg/Pa]
	------------------------------------------------------------------------------
	[O2] Average Henry coefficient:  0 +/- 0 [mol/kg/Pa]
	Block[ 0] 0 [mol/kg/Pa]
	Block[ 1] 0 [mol/kg/Pa]
	Block[ 2] 0 [mol/kg/Pa]
	Block[ 3] 0 [mol/kg/Pa]
	Block[ 4] 0 [mol/kg/Pa]
	------------------------------------------------------------------------------
	[SPC-E] Average Henry coefficient:  0 +/- 0 [mol/kg/Pa]

Average adsorption energy <U_gh>_1-<U_h>_0 obtained from Widom-insertion:
(Note: the total heat of adsorption is dH=<U_gh>_1-<U_h>_0 - <U_g> - RT)
=========================================================================

Simulation finished,  0 warnings


Fri Nov  7 16:55:25 2025
Simulation finished on Friday, November 07.
The end time was 04:55 PM.

